METHYL-ACCEPTING CHEMOTAXIS PROTEIN II
96777
  352LIG      N    1   2.545   9.504   5.035
  352LIG     H1    2   2.613   9.556   5.086
  352LIG     H2    3   2.590   9.453   4.962
  352LIG     H3    4   2.478   9.567   4.995
  352LIG     CA    5   2.474   9.407   5.128
  352LIG     HA    6   2.541   9.345   5.168
  352LIG     CB    7   2.407   9.486   5.238
  352LIG    HB1    8   2.342   9.551   5.199
  352LIG    HB2    9   2.476   9.536   5.290
  352LIG     CG   10   2.334   9.393   5.332
  352LIG    OD1   11   2.208   9.363   5.294
  352LIG    OD2   12   2.386   9.350   5.435
  352LIG      C   13   2.368   9.326   5.049
  352LIG    OT1   14   2.355   9.352   4.915
  352LIG    OT2   15   2.295   9.234   5.119
  353LIG      N   16   0.408   2.597   0.569
  353LIG     H1   17   0.310   2.588   0.587
  353LIG     H2   18   0.422   2.623   0.473
  353LIG     H3   19   0.453   2.510   0.588
  353LIG     CA   20   0.465   2.705   0.660
  353LIG     HA   21   0.420   2.792   0.642
  353LIG     CB   22   0.441   2.665   0.804
  353LIG    HB1   23   0.485   2.577   0.822
  353LIG    HB2   24   0.344   2.657   0.821
  353LIG     CG   25   0.498   2.768   0.896
  353LIG    OD1   26   0.629   2.751   0.927
  353LIG    OD2   27   0.431   2.860   0.942
  353LIG      C   28   0.618   2.720   0.634
  353LIG    OT1   29   0.673   2.639   0.539
  353LIG    OT2   30   0.684   2.813   0.708
  354LIG      N   31   4.080   1.284   1.543
  354LIG     H1   32   4.178   1.282   1.520
  354LIG     H2   33   4.069   1.297   1.641
  354LIG     H3   34   4.038   1.197   1.515
  354LIG     CA   35   4.013   1.398   1.468
  354LIG     HA   36   4.054   1.484   1.494
  354LIG     CB   37   4.032   1.377   1.319
  354LIG    HB1   38   3.992   1.288   1.292
  354LIG    HB2   39   4.129   1.376   1.298
  354LIG     CG   40   3.965   1.486   1.242
  354LIG    OD1   41   3.834   1.465   1.215
  354LIG    OD2   42   4.025   1.587   1.205
  354LIG      C   43   3.861   1.400   1.502
  354LIG    OT1   44   3.815   1.306   1.589
  354LIG    OT2   45   3.786   1.497   1.442
  355LIG      N   46   0.846   8.993   1.247
  355LIG     H1   47   0.786   8.914   1.259
  355LIG     H2   48   0.855   9.014   1.149
  355LIG     H3   49   0.936   8.973   1.286
  355LIG     CA   50   0.787   9.114   1.319
  355LIG     HA   51   0.697   9.134   1.281
  355LIG     CB   52   0.773   9.081   1.466
  355LIG    HB1   53   0.863   9.058   1.504
  355LIG    HB2   54   0.712   9.003   1.477
  355LIG     CG   55   0.716   9.198   1.540
  355LIG    OD1   56   0.808   9.289   1.582
  355LIG    OD2   57   0.596   9.211   1.562
  355LIG      C   58   0.880   9.237   1.301
  355LIG    OT1   59   0.994   9.219   1.227
  355LIG    OT2   60   0.841   9.353   1.359
  356LIG      N   61   8.912   3.372   0.517
  356LIG     H1   62   8.816   3.400   0.509
  356LIG     H2   63   8.957   3.385   0.429
  356LIG     H3   64   8.915   3.275   0.543
  356LIG     CA   65   8.981   3.455   0.623
  356LIG     HA   66   8.977   3.551   0.598
  356LIG     CB   67   8.910   3.435   0.755
  356LIG    HB1   68   8.911   3.338   0.780
  356LIG    HB2   69   8.815   3.465   0.747
  356LIG     CG   70   8.977   3.514   0.863
  356LIG    OD1   71   9.080   3.452   0.924
  356LIG    OD2   72   8.940   3.628   0.894
  356LIG      C   73   9.130   3.410   0.636
  356LIG    OT1   74   9.172   3.309   0.554
  356LIG    OT2   75   9.206   3.476   0.728
  357LIG      N   76   5.333   0.129   8.505
  357LIG     H1   77   5.296   0.167   8.589
  357LIG     H2   78   5.403   0.190   8.468
  357LIG     H3   79   5.260   0.116   8.438
  357LIG     CA   80   5.396  -0.007   8.535
  357LIG     HA   81   5.469   0.005   8.603
  357LIG     CB   82   5.290  -0.098   8.593
  357LIG    HB1   83   5.215  -0.108   8.527
  357LIG    HB2   84   5.254  -0.059   8.677
  357LIG     CG   85   5.348  -0.233   8.622
  357LIG    OD1   86   5.348  -0.319   8.518
  357LIG    OD2   87   5.391  -0.263   8.734
  357LIG      C   88   5.455  -0.068   8.405
  357LIG    OT1   89   5.441   0.005   8.290
  357LIG    OT2   90   5.515  -0.190   8.416
  358LIG      N   91   2.364   7.009   5.040
  358LIG     H1   92   2.311   7.080   5.087
  358LIG     H2   93   2.303   6.941   5.001
  358LIG     H3   94   2.426   6.966   5.106
  358LIG     CA   95   2.448   7.073   4.930
  358LIG     HA   96   2.387   7.117   4.864
  358LIG     CB   97   2.539   7.177   4.991
  358LIG    HB1   98   2.598   7.133   5.059
  358LIG    HB2   99   2.485   7.247   5.036
  358LIG     CG  100   2.624   7.240   4.885
  358LIG    OD1  101   2.738   7.174   4.857
  358LIG    OD2  102   2.591   7.345   4.829
  358LIG      C  103   2.532   6.964   4.858
  358LIG    OT1  104   2.519   6.835   4.903
  358LIG    OT2  105   2.612   7.005   4.756
  359LIG      N  106   8.472   2.327   5.206
  359LIG     H1  107   8.425   2.312   5.119
  359LIG     H2  108   8.571   2.330   5.190
  359LIG     H3  109   8.450   2.252   5.269
  359LIG     CA  110   8.427   2.459   5.267
  359LIG     HA  111   8.448   2.533   5.204
  359LIG     CB  112   8.277   2.453   5.290
  359LIG    HB1  113   8.255   2.376   5.350
  359LIG    HB2  114   8.231   2.440   5.203
  359LIG     CG  115   8.229   2.581   5.351
  359LIG    OD1  116   8.237   2.585   5.486
  359LIG    OD2  117   8.185   2.674   5.284
  359LIG      C  118   8.500   2.482   5.402
  359LIG    OT1  119   8.589   2.386   5.443
  359LIG    OT2  120   8.470   2.596   5.470
  360LIG      N  121   9.714   5.625   5.271
  360LIG     H1  122   9.649   5.667   5.208
  360LIG     H2  123   9.695   5.656   5.364
  360LIG     H3  124   9.807   5.651   5.245
  360LIG     CA  125   9.701   5.474   5.264
  360LIG     HA  126   9.608   5.448   5.290
  360LIG     CB  127   9.728   5.428   5.123
  360LIG    HB1  128   9.820   5.457   5.096
  360LIG    HB2  129   9.662   5.470   5.061
  360LIG     CG  130   9.717   5.279   5.113
  360LIG    OD1  131   9.831   5.212   5.143
  360LIG    OD2  132   9.613   5.223   5.079
  360LIG      C  133   9.802   5.407   5.362
  360LIG    OT1  134   9.883   5.491   5.434
  360LIG    OT2  135   9.802   5.271   5.367
  361LIG      N  136   0.382   3.385   4.607
  361LIG     H1  137   0.406   3.433   4.691
  361LIG     H2  138   0.284   3.398   4.588
  361LIG     H3  139   0.401   3.287   4.619
  361LIG     CA  140   0.464   3.439   4.492
  361LIG     HA  141   0.446   3.536   4.480
  361LIG     CB  142   0.611   3.419   4.523
  361LIG    HB1  143   0.630   3.322   4.537
  361LIG    HB2  144   0.634   3.469   4.606
  361LIG     CG  145   0.695   3.470   4.410
  361LIG    OD1  146   0.717   3.381   4.311
  361LIG    OD2  147   0.742   3.584   4.408
  361LIG      C  148   0.427   3.363   4.361
  361LIG    OT1  149   0.332   3.266   4.370
  361LIG    OT2  150   0.493   3.400   4.247
  362LIG      N  151   9.103   2.033   5.235
  362LIG     H1  152   9.143   1.955   5.284
  362LIG     H2  153   9.094   2.110   5.298
  362LIG     H3  154   9.012   2.007   5.200
  362LIG     CA  155   9.192   2.071   5.119
  362LIG     HA  156   9.283   2.096   5.153
  362LIG     CB  157   9.206   1.953   5.026
  362LIG    HB1  158   9.115   1.926   4.993
  362LIG    HB2  159   9.246   1.876   5.074
  362LIG     CG  160   9.292   1.988   4.909
  362LIG    OD1  161   9.227   2.046   4.805
  362LIG    OD2  162   9.413   1.964   4.907
  362LIG      C  163   9.131   2.192   5.043
  362LIG    OT1  164   9.013   2.242   5.090
  362LIG    OT2  165   9.200   2.239   4.935
  363LIG      N  166   5.604   8.992   7.554
  363LIG     H1  167   5.536   9.000   7.628
  363LIG     H2  168   5.595   8.903   7.510
  363LIG     H3  169   5.696   9.002   7.592
  363LIG     CA  170   5.580   9.102   7.452
  363LIG     HA  171   5.488   9.093   7.414
  363LIG     CB  172   5.592   9.236   7.520
  363LIG    HB1  173   5.684   9.245   7.560
  363LIG    HB2  174   5.524   9.244   7.592
  363LIG     CG  175   5.571   9.347   7.422
  363LIG    OD1  176   5.682   9.385   7.354
  363LIG    OD2  177   5.461   9.400   7.404
  363LIG      C  178   5.684   9.091   7.337
  363LIG    OT1  179   5.776   8.990   7.346
  363LIG    OT2  180   5.676   9.183   7.237
  364LIG      N  181   0.393   5.881   1.955
  364LIG     H1  182   0.449   5.955   1.993
  364LIG     H2  183   0.452   5.809   1.919
  364LIG     H3  184   0.336   5.917   1.881
  364LIG     CA  185   0.304   5.825   2.064
  364LIG     HA  186   0.360   5.789   2.138
  364LIG     CB  187   0.216   5.935   2.118
  364LIG    HB1  188   0.160   5.973   2.043
  364LIG    HB2  189   0.272   6.008   2.156
  364LIG     CG  190   0.125   5.883   2.225
  364LIG    OD1  191   0.009   5.830   2.180
  364LIG    OD2  192   0.154   5.889   2.344
  364LIG      C  193   0.216   5.710   2.007
  364LIG    OT1  194   0.232   5.680   1.874
  364LIG    OT2  195   0.130   5.649   2.093
  365LIG      N  196   2.360   8.230   7.908
  365LIG     H1  197   2.342   8.201   8.002
  365LIG     H2  198   2.273   8.242   7.860
  365LIG     H3  199   2.415   8.162   7.861
  365LIG     CA  200   2.434   8.363   7.910
  365LIG     HA  201   2.380   8.431   7.957
  365LIG     CB  202   2.565   8.344   7.984
  365LIG    HB1  203   2.620   8.273   7.938
  365LIG    HB2  204   2.547   8.316   8.077
  365LIG     CG  205   2.643   8.472   7.986
  365LIG    OD1  206   2.721   8.493   7.878
  365LIG    OD2  207   2.636   8.552   8.079
  365LIG      C  208   2.462   8.409   7.764
  365LIG    OT1  209   2.418   8.329   7.663
  365LIG    OT2  210   2.529   8.527   7.749
  366LIG      N  211   9.192   0.611   2.064
  366LIG     H1  212   9.264   0.559   2.110
  366LIG     H2  213   9.118   0.630   2.128
  366LIG     H3  214   9.157   0.557   1.986
  366LIG     CA  215   9.249   0.742   2.011
  366LIG     HA  216   9.285   0.795   2.088
  366LIG     CB  217   9.362   0.711   1.916
  366LIG    HB1  218   9.328   0.655   1.840
  366LIG    HB2  219   9.434   0.660   1.963
  366LIG     CG  220   9.420   0.838   1.861
  366LIG    OD1  221   9.357   0.886   1.752
  366LIG    OD2  222   9.518   0.892   1.911
  366LIG      C  223   9.139   0.822   1.939
  366LIG    OT1  224   9.014   0.767   1.933
  366LIG    OT2  225   9.175   0.943   1.886
  367LIG      N  226   7.788   3.497   0.136
  367LIG     H1  227   7.774   3.585   0.180
  367LIG     H2  228   7.878   3.461   0.161
  367LIG     H3  229   7.782   3.507   0.037
  367LIG     CA  230   7.681   3.399   0.182
  367LIG     HA  231   7.686   3.389   0.282
  367LIG     CB  232   7.545   3.455   0.145
  367LIG    HB1  233   7.540   3.468   0.046
  367LIG    HB2  234   7.531   3.543   0.190
  367LIG     CG  235   7.437   3.360   0.188
  367LIG    OD1  236   7.408   3.263   0.099
  367LIG    OD2  237   7.378   3.372   0.296
  367LIG      C  238   7.702   3.261   0.114
  367LIG    OT1  239   7.808   3.249   0.029
  367LIG    OT2  240   7.613   3.162   0.146
  368LIG      N  241   3.353   0.866   9.244
  368LIG     H1  242   3.415   0.944   9.253
  368LIG     H2  243   3.271   0.894   9.194
  368LIG     H3  244   3.327   0.834   9.336
  368LIG     CA  245   3.422   0.754   9.170
  368LIG     HA  246   3.448   0.785   9.079
  368LIG     CB  247   3.546   0.713   9.246
  368LIG    HB1  248   3.521   0.684   9.338
  368LIG    HB2  249   3.608   0.791   9.253
  368LIG     CG  250   3.617   0.601   9.176
  368LIG    OD1  251   3.572   0.478   9.207
  368LIG    OD2  252   3.708   0.621   9.096
  368LIG      C  253   3.326   0.632   9.156
  368LIG    OT1  254   3.202   0.644   9.211
  368LIG    OT2  255   3.374   0.522   9.091
  369LIG      N  256   2.623   0.712   0.353
  369LIG     H1  257   2.720   0.697   0.336
  369LIG     H2  258   2.611   0.751   0.445
  369LIG     H3  259   2.574   0.624   0.347
  369LIG     CA  260   2.566   0.807   0.250
  369LIG     HA  261   2.615   0.894   0.255
  369LIG     CB  262   2.587   0.748   0.112
  369LIG    HB1  263   2.540   0.659   0.107
  369LIG    HB2  264   2.684   0.734   0.095
  369LIG     CG  265   2.531   0.838   0.007
  369LIG    OD1  266   2.399   0.822  -0.019
  369LIG    OD2  267   2.600   0.921  -0.052
  369LIG      C  268   2.415   0.830   0.275
  369LIG    OT1  269   2.359   0.765   0.382
  369LIG    OT2  270   2.350   0.914   0.190
  370LIG      N  271   4.503   0.082   5.619
  370LIG     H1  272   4.519  -0.013   5.593
  370LIG     H2  273   4.513   0.092   5.719
  370LIG     H3  274   4.411   0.110   5.592
  370LIG     CA  275   4.604   0.171   5.549
  370LIG     HA  276   4.697   0.144   5.576
  370LIG     CB  277   4.589   0.155   5.400
  370LIG    HB1  278   4.496   0.179   5.373
  370LIG    HB2  279   4.606   0.060   5.375
  370LIG     CG  280   4.687   0.242   5.327
  370LIG    OD1  281   4.644   0.368   5.305
  370LIG    OD2  282   4.797   0.201   5.290
  370LIG      C  283   4.581   0.320   5.589
  370LIG    OT1  284   4.479   0.346   5.675
  370LIG    OT2  285   4.664   0.412   5.533
  371LIG      N  286   7.905   9.155   4.408
  371LIG     H1  287   7.945   9.156   4.317
  371LIG     H2  288   7.935   9.073   4.457
  371LIG     H3  289   7.805   9.156   4.401
  371LIG     CA  290   7.951   9.279   4.484
  371LIG     HA  291   8.051   9.279   4.491
  371LIG     CB  292   7.907   9.402   4.408
  371LIG    HB1  293   7.807   9.401   4.399
  371LIG    HB2  294   7.948   9.402   4.318
  371LIG     CG  295   7.949   9.526   4.481
  371LIG    OD1  296   7.862   9.568   4.576
  371LIG    OD2  297   8.054   9.585   4.456
  371LIG      C  298   7.889   9.279   4.627
  371LIG    OT1  299   7.808   9.174   4.660
  371LIG    OT2  300   7.921   9.384   4.708
  372LIG      N  301   8.546   7.265   0.630
  372LIG     H1  302   8.585   7.306   0.713
  372LIG     H2  303   8.450   7.293   0.621
  372LIG     H3  304   8.552   7.166   0.635
  372LIG     CA  305   8.624   7.313   0.508
  372LIG     HA  306   8.619   7.413   0.503
  372LIG     CB  307   8.769   7.272   0.524
  372LIG    HB1  308   8.774   7.172   0.532
  372LIG    HB2  309   8.807   7.313   0.606
  372LIG     CG  310   8.849   7.316   0.405
  372LIG    OD1  311   8.848   7.230   0.301
  372LIG    OD2  312   8.911   7.423   0.403
  372LIG      C  313   8.565   7.251   0.379
  372LIG    OT1  314   8.457   7.168   0.393
  372LIG    OT2  315   8.624   7.285   0.261
  373LIG      N  316   2.697   4.724   9.966
  373LIG     H1  317   2.734   4.814   9.988
  373LIG     H2  318   2.763   4.653   9.993
  373LIG     H3  319   2.679   4.718   9.868
  373LIG     CA  320   2.567   4.703  10.042
  373LIG     HA  321   2.584   4.709  10.140
  373LIG     CB  322   2.469   4.810  10.002
  373LIG    HB1  323   2.453   4.806   9.903
  373LIG    HB2  324   2.506   4.900  10.025
  373LIG     CG  325   2.339   4.792  10.074
  373LIG    OD1  326   2.252   4.708  10.013
  373LIG    OD2  327   2.313   4.849  10.179
  373LIG      C  328   2.509   4.563  10.008
  373LIG    OT1  329   2.579   4.485   9.921
  373LIG    OT2  330   2.391   4.528  10.069
  374LIG      N  331   2.234   1.956   8.588
  374LIG     H1  332   2.320   1.908   8.575
  374LIG     H2  333   2.198   1.986   8.500
  374LIG     H3  334   2.248   2.036   8.647
  374LIG     CA  335   2.133   1.863   8.654
  374LIG     HA  336   2.119   1.783   8.596
  374LIG     CB  337   2.189   1.818   8.788
  374LIG    HB1  338   2.206   1.898   8.846
  374LIG    HB2  339   2.275   1.770   8.774
  374LIG     CG  340   2.092   1.727   8.857
  374LIG    OD1  341   1.998   1.790   8.931
  374LIG    OD2  342   2.098   1.605   8.847
  374LIG      C  343   1.998   1.937   8.676
  374LIG    OT1  344   1.991   2.067   8.634
  374LIG    OT2  345   1.898   1.867   8.734
  375LIG      N  346   0.493   2.408   2.442
  375LIG     H1  347   0.471   2.356   2.360
  375LIG     H2  348   0.469   2.355   2.523
  375LIG     H3  349   0.442   2.494   2.441
  375LIG     CA  350   0.642   2.439   2.444
  375LIG     HA  351   0.694   2.354   2.444
  375LIG     CB  352   0.677   2.518   2.320
  375LIG    HB1  353   0.624   2.603   2.318
  375LIG    HB2  354   0.656   2.465   2.238
  375LIG     CG  355   0.823   2.552   2.319
  375LIG    OD1  356   0.856   2.665   2.385
  375LIG    OD2  357   0.907   2.482   2.261
  375LIG      C  358   0.678   2.521   2.571
  375LIG    OT1  359   0.575   2.551   2.656
  375LIG    OT2  360   0.808   2.557   2.587
  376LIG      N  361   0.791   3.502   8.490
  376LIG     H1  362   0.774   3.487   8.392
  376LIG     H2  363   0.717   3.462   8.544
  376LIG     H3  364   0.797   3.600   8.508
  376LIG     CA  365   0.923   3.436   8.529
  376LIG     HA  366   0.918   3.338   8.510
  376LIG     CB  367   1.034   3.496   8.446
  376LIG    HB1  368   1.038   3.595   8.462
  376LIG    HB2  369   1.016   3.480   8.349
  376LIG     CG  370   1.166   3.435   8.482
  376LIG    OD1  371   1.229   3.493   8.586
  376LIG    OD2  372   1.213   3.339   8.421
  376LIG      C  373   0.951   3.459   8.679
  376LIG    OT1  374   0.858   3.531   8.750
  376LIG    OT2  375   1.066   3.406   8.730
  377LIG      N  376   0.694   7.298   0.944
  377LIG     H1  377   0.700   7.213   0.892
  377LIG     H2  378   0.738   7.287   1.033
  377LIG     H3  379   0.597   7.322   0.957
  377LIG     CA  380   0.762   7.410   0.867
  377LIG     HA  381   0.858   7.387   0.853
  377LIG     CB  382   0.695   7.426   0.733
  377LIG    HB1  383   0.598   7.447   0.746
  377LIG    HB2  384   0.703   7.341   0.681
  377LIG     CG  385   0.759   7.536   0.655
  377LIG    OD1  386   0.710   7.659   0.680
  377LIG    OD2  387   0.849   7.516   0.573
  377LIG      C  388   0.753   7.543   0.947
  377LIG    OT1  389   0.687   7.539   1.067
  377LIG    OT2  390   0.810   7.653   0.891
  378LIG      N  391   4.662   0.011   4.939
  378LIG     H1  392   4.734   0.078   4.956
  378LIG     H2  393   4.623  -0.020   5.027
  378LIG     H3  394   4.700  -0.068   4.890
  378LIG     CA  395   4.552   0.073   4.855
  378LIG     HA  396   4.514   0.152   4.903
  378LIG     CB  397   4.612   0.120   4.724
  378LIG    HB1  398   4.653   0.042   4.676
  378LIG    HB2  399   4.682   0.188   4.742
  378LIG     CG  400   4.506   0.181   4.638
  378LIG    OD1  401   4.438   0.094   4.561
  378LIG    OD2  402   4.484   0.302   4.636
  378LIG      C  403   4.440  -0.031   4.828
  378LIG    OT1  404   4.457  -0.156   4.881
  378LIG    OT2  405   4.334   0.010   4.753
  379LIG      N  406   9.525   9.025   3.254
  379LIG     H1  407   9.518   9.034   3.154
  379LIG     H2  408   9.612   8.983   3.278
  379LIG     H3  409   9.449   8.970   3.287
  379LIG     CA  410   9.517   9.163   3.317
  379LIG     HA  411   9.592   9.220   3.283
  379LIG     CB  412   9.385   9.228   3.278
  379LIG    HB1  413   9.309   9.170   3.309
  379LIG    HB2  414   9.380   9.236   3.179
  379LIG     CG  415   9.373   9.363   3.340
  379LIG    OD1  416   9.322   9.364   3.465
  379LIG    OD2  417   9.406   9.466   3.281
  379LIG      C  418   9.526   9.152   3.471
  379LIG    OT1  419   9.539   9.026   3.524
  379LIG    OT2  420   9.520   9.267   3.543
  380LIG      N  421   3.466   1.485   1.948
  380LIG     H1  422   3.405   1.563   1.931
  380LIG     H2  423   3.511   1.496   2.037
  380LIG     H3  424   3.535   1.480   1.876
  380LIG     CA  425   3.385   1.356   1.949
  380LIG     HA  426   3.315   1.361   2.021
  380LIG     CB  427   3.316   1.341   1.815
  380LIG    HB1  428   3.385   1.339   1.742
  380LIG    HB2  429   3.255   1.418   1.800
  380LIG     CG  430   3.236   1.214   1.812
  380LIG    OD1  431   3.305   1.104   1.775
  380LIG    OD2  432   3.116   1.211   1.840
  380LIG      C  433   3.478   1.235   1.975
  380LIG    OT1  434   3.611   1.261   1.992
  380LIG    OT2  435   3.419   1.112   1.979
  381LIG      N  436   1.287   9.327   4.735
  381LIG     H1  437   1.274   9.228   4.735
  381LIG     H2  438   1.210   9.371   4.783
  381LIG     H3  439   1.291   9.361   4.641
  381LIG     CA  440   1.416   9.362   4.806
  381LIG     HA  441   1.413   9.329   4.900
  381LIG     CB  442   1.531   9.295   4.734
  381LIG    HB1  443   1.534   9.326   4.639
  381LIG    HB2  444   1.518   9.196   4.736
  381LIG     CG  445   1.661   9.328   4.801
  381LIG    OD1  446   1.719   9.443   4.759
  381LIG    OD2  447   1.712   9.256   4.886
  381LIG      C  448   1.437   9.516   4.807
  381LIG    OT1  449   1.341   9.592   4.747
  381LIG    OT2  450   1.550   9.563   4.867
  382LIG      N  451   6.375   9.442   6.988
  382LIG     H1  452   6.313   9.457   6.911
  382LIG     H2  453   6.469   9.459   6.959
  382LIG     H3  454   6.366   9.348   7.020
  382LIG     CA  455   6.339   9.537   7.101
  382LIG     HA  456   6.347   9.631   7.069
  382LIG     CB  457   6.196   9.511   7.142
  382LIG    HB1  458   6.186   9.415   7.172
  382LIG    HB2  459   6.135   9.526   7.065
  382LIG     CG  460   6.156   9.601   7.255
  382LIG    OD1  461   6.187   9.556   7.378
  382LIG    OD2  462   6.099   9.709   7.236
  382LIG      C  463   6.434   9.514   7.222
  382LIG    OT1  464   6.530   9.418   7.208
  382LIG    OT2  465   6.413   9.592   7.332
  383LIG      N  466   4.194   1.619   5.155
  383LIG     H1  467   4.213   1.525   5.183
  383LIG     H2  468   4.209   1.628   5.056
  383LIG     H3  469   4.256   1.681   5.203
  383LIG     CA  470   4.051   1.656   5.189
  383LIG     HA  471   3.989   1.594   5.141
  383LIG     CB  472   4.030   1.641   5.338
  383LIG    HB1  473   4.094   1.701   5.387
  383LIG    HB2  474   4.048   1.546   5.365
  383LIG     CG  475   3.890   1.677   5.375
  383LIG    OD1  476   3.870   1.809   5.398
  383LIG    OD2  477   3.800   1.593   5.385
  383LIG      C  478   4.021   1.802   5.146
  383LIG    OT1  479   4.124   1.871   5.087
  383LIG    OT2  480   3.896   1.850   5.170
  384LIG      N  481   8.410   3.907   6.255
  384LIG     H1  482   8.457   3.819   6.258
  384LIG     H2  483   8.455   3.972   6.315
  384LIG     H3  484   8.315   3.894   6.284
  384LIG     CA  485   8.411   3.960   6.113
  384LIG     HA  486   8.505   3.972   6.082
  384LIG     CB  487   8.343   3.860   6.022
  384LIG    HB1  488   8.248   3.845   6.053
  384LIG    HB2  489   8.391   3.773   6.025
  384LIG     CG  490   8.341   3.910   5.881
  384LIG    OD1  491   8.236   3.990   5.850
  384LIG    OD2  492   8.427   3.879   5.799
  384LIG      C  493   8.337   4.096   6.106
  384LIG    OT1  494   8.285   4.144   6.223
  384LIG    OT2  495   8.329   4.157   5.985
  385LIG      N  496   9.845   5.740   2.669
  385LIG     H1  497   9.900   5.663   2.702
  385LIG     H2  498   9.844   5.740   2.569
  385LIG     H3  499   9.884   5.826   2.702
  385LIG     CA  500   9.703   5.727   2.721
  385LIG     HA  501   9.663   5.641   2.689
  385LIG     CB  502   9.706   5.726   2.872
  385LIG    HB1  503   9.748   5.811   2.905
  385LIG    HB2  504   9.760   5.649   2.904
  385LIG     CG  505   9.567   5.714   2.927
  385LIG    OD1  506   9.502   5.832   2.942
  385LIG    OD2  507   9.517   5.606   2.958
  385LIG      C  508   9.616   5.845   2.670
  385LIG    OT1  509   9.678   5.938   2.591
  385LIG    OT2  510   9.486   5.848   2.709
  386LIG      N  511   0.285   1.143   6.048
  386LIG     H1  512   0.199   1.183   6.080
  386LIG     H2  513   0.272   1.108   5.955
  386LIG     H3  514   0.313   1.069   6.108
  386LIG     CA  515   0.394   1.250   6.047
  386LIG     HA  516   0.366   1.325   5.987
  386LIG     CB  517   0.411   1.303   6.188
  386LIG    HB1  518   0.436   1.228   6.249
  386LIG    HB2  519   0.325   1.343   6.219
  386LIG     CG  520   0.518   1.407   6.191
  386LIG    OD1  521   0.643   1.359   6.207
  386LIG    OD2  522   0.493   1.528   6.181
  386LIG      C  523   0.527   1.189   5.997
  386LIG    OT1  524   0.527   1.057   5.962
  386LIG    OT2  525   0.635   1.273   5.990
  387LIG      N  526   8.979   3.098   7.596
  387LIG     H1  527   9.027   3.180   7.629
  387LIG     H2  528   8.984   3.095   7.496
  387LIG     H3  529   8.883   3.103   7.624
  387LIG     CA  530   9.043   2.974   7.655
  387LIG     HA  531   9.139   2.970   7.628
  387LIG     CB  532   9.035   2.982   7.806
  387LIG    HB1  533   8.938   2.989   7.834
  387LIG    HB2  534   9.083   3.063   7.838
  387LIG     CG  535   9.095   2.860   7.868
  387LIG    OD1  536   9.011   2.755   7.882
  387LIG    OD2  537   9.213   2.856   7.905
  387LIG      C  538   8.969   2.847   7.605
  387LIG    OT1  539   8.863   2.866   7.520
  387LIG    OT2  540   9.014   2.727   7.650
  388LIG      N  541   6.704   7.912   4.590
  388LIG     H1  542   6.777   7.924   4.522
  388LIG     H2  543   6.723   7.831   4.645
  388LIG     H3  544   6.617   7.900   4.543
  388LIG     CA  545   6.697   8.034   4.679
  388LIG     HA  546   6.785   8.046   4.726
  388LIG     CB  547   6.670   8.156   4.593
  388LIG    HB1  548   6.583   8.143   4.544
  388LIG    HB2  549   6.743   8.168   4.527
  388LIG     CG  550   6.661   8.279   4.678
  388LIG    OD1  551   6.539   8.303   4.730
  388LIG    OD2  552   6.758   8.352   4.699
  388LIG      C  553   6.584   8.017   4.784
  388LIG    OT1  554   6.513   7.901   4.780
  388LIG    OT2  555   6.566   8.119   4.872
  389LIG      N  556   7.476   1.827   6.671
  389LIG     H1  557   7.551   1.859   6.614
  389LIG     H2  558   7.486   1.862   6.764
  389LIG     H3  559   7.476   1.727   6.673
  389LIG     CA  560   7.344   1.874   6.613
  389LIG     HA  561   7.343   1.974   6.610
  389LIG     CB  562   7.330   1.821   6.472
  389LIG    HB1  563   7.334   1.721   6.473
  389LIG    HB2  564   7.405   1.855   6.416
  389LIG     CG  565   7.200   1.865   6.411
  389LIG    OD1  566   7.095   1.785   6.439
  389LIG    OD2  567   7.191   1.966   6.342
  389LIG      C  568   7.226   1.824   6.700
  389LIG    OT1  569   7.257   1.748   6.810
  389LIG    OT2  570   7.100   1.858   6.660
  390LIG      N  571   8.828   7.805   4.135
  390LIG     H1  572   8.758   7.738   4.159
  390LIG     H2  573   8.820   7.827   4.037
  390LIG     H3  574   8.919   7.768   4.154
  390LIG     CA  575   8.808   7.932   4.217
  390LIG     HA  576   8.717   7.969   4.199
  390LIG     CB  577   8.819   7.897   4.364
  390LIG    HB1  578   8.909   7.856   4.382
  390LIG    HB2  579   8.748   7.830   4.388
  390LIG     CG  580   8.801   8.019   4.448
  390LIG    OD1  581   8.914   8.090   4.470
  390LIG    OD2  582   8.692   8.052   4.495
  390LIG      C  583   8.916   8.037   4.180
  390LIG    OT1  584   9.007   8.001   4.084
  390LIG    OT2  585   8.912   8.156   4.245
  391LIG      N  586   9.089   5.946   1.002
  391LIG     H1  587   8.990   5.959   0.994
  391LIG     H2  588   9.116   5.952   1.098
  391LIG     H3  589   9.136   6.018   0.950
  391LIG     CA  590   9.128   5.810   0.946
  391LIG     HA  591   9.081   5.739   0.998
  391LIG     CB  592   9.086   5.803   0.801
  391LIG    HB1  593   9.131   5.876   0.749
  391LIG    HB2  594   8.987   5.814   0.794
  391LIG     CG  595   9.124   5.670   0.743
  391LIG    OD1  596   9.249   5.664   0.694
  391LIG    OD2  597   9.046   5.575   0.739
  391LIG      C  598   9.281   5.790   0.958
  391LIG    OT1  599   9.354   5.892   1.013
  391LIG    OT2  600   9.332   5.672   0.912
  392LIG      N  601   8.996   4.469   7.405
  392LIG     H1  602   9.079   4.468   7.350
  392LIG     H2  603   8.975   4.564   7.431
  392LIG     H3  604   9.009   4.414   7.488
  392LIG     CA  605   8.880   4.412   7.324
  392LIG     HA  606   8.868   4.467   7.242
  392LIG     CB  607   8.914   4.270   7.285
  392LIG    HB1  608   8.930   4.215   7.368
  392LIG    HB2  609   8.997   4.269   7.230
  392LIG     CG  610   8.802   4.210   7.206
  392LIG    OD1  611   8.705   4.153   7.281
  392LIG    OD2  612   8.800   4.211   7.083
  392LIG      C  613   8.750   4.414   7.409
  392LIG    OT1  614   8.759   4.464   7.536
  392LIG    OT2  615   8.637   4.366   7.350
  393LIG      N  616   9.554   4.218   3.017
  393LIG     H1  617   9.471   4.247   2.969
  393LIG     H2  618   9.530   4.181   3.106
  393LIG     H3  619   9.615   4.297   3.028
  393LIG     CA  620   9.625   4.111   2.935
  393LIG     HA  621   9.565   4.033   2.923
  393LIG     CB  622   9.660   4.168   2.799
  393LIG    HB1  623   9.718   4.249   2.811
  393LIG    HB2  624   9.576   4.196   2.752
  393LIG     CG  625   9.732   4.066   2.717
  393LIG    OD1  626   9.866   4.063   2.735
  393LIG    OD2  627   9.673   3.993   2.637
  393LIG      C  628   9.755   4.067   3.008
  393LIG    OT1  629   9.783   4.127   3.128
  393LIG    OT2  630   9.831   3.971   2.947
  394LIG      N  631   0.942   7.226   1.924
  394LIG     H1  632   0.904   7.315   1.898
  394LIG     H2  633   1.038   7.221   1.895
  394LIG     H3  634   0.890   7.153   1.879
  394LIG     CA  635   0.932   7.209   2.074
  394LIG     HA  636   0.983   7.282   2.119
  394LIG     CB  637   0.787   7.219   2.116
  394LIG    HB1  638   0.734   7.147   2.069
  394LIG    HB2  639   0.750   7.308   2.090
  394LIG     CG  640   0.773   7.201   2.264
  394LIG    OD1  641   0.764   7.072   2.305
  394LIG    OD2  642   0.770   7.296   2.342
  394LIG      C  643   0.990   7.072   2.116
  394LIG    OT1  644   1.039   6.992   2.016
  394LIG    OT2  645   0.989   7.042   2.249
  395LIG      N  646   1.393   9.774   6.991
  395LIG     H1  647   1.335   9.790   7.071
  395LIG     H2  648   1.335   9.757   6.911
  395LIG     H3  649   1.452   9.696   7.008
  395LIG     CA  650   1.479   9.897   6.966
  395LIG     HA  651   1.420   9.976   6.949
  395LIG     CB  652   1.564   9.923   7.088
  395LIG    HB1  653   1.622   9.843   7.106
  395LIG    HB2  654   1.506   9.940   7.167
  395LIG     CG  655   1.652  10.042   7.065
  395LIG    OD1  656   1.770  10.016   7.004
  395LIG    OD2  657   1.620  10.156   7.101
  395LIG      C  658   1.569   9.873   6.842
  395LIG    OT1  659   1.558   9.752   6.778
  395LIG    OT2  660   1.653   9.974   6.806
  396LIG      N  661   0.280   1.494   4.053
  396LIG     H1  662   0.290   1.395   4.064
  396LIG     H2  663   0.343   1.542   4.114
  396LIG     H3  664   0.186   1.521   4.075
  396LIG     CA  665   0.309   1.533   3.909
  396LIG     HA  666   0.403   1.506   3.886
  396LIG     CB  667   0.213   1.460   3.818
  396LIG    HB1  668   0.119   1.484   3.842
  396LIG    HB2  669   0.225   1.361   3.829
  396LIG     CG  670   0.238   1.496   3.675
  396LIG    OD1  671   0.174   1.607   3.632
  396LIG    OD2  672   0.311   1.429   3.601
  396LIG      C  673   0.293   1.686   3.890
  396LIG    OT1  674   0.257   1.759   4.000
  396LIG    OT2  675   0.317   1.736   3.766
  397LIG      N  676   1.451   1.485   6.893
  397LIG     H1  677   1.421   1.460   6.985
  397LIG     H2  678   1.409   1.572   6.867
  397LIG     H3  679   1.424   1.414   6.828
  397LIG     CA  680   1.602   1.500   6.890
  397LIG     HA  681   1.630   1.571   6.955
  397LIG     CB  682   1.665   1.369   6.931
  397LIG    HB1  683   1.636   1.296   6.868
  397LIG    HB2  684   1.636   1.344   7.023
  397LIG     CG  685   1.814   1.379   6.928
  397LIG    OD1  686   1.871   1.354   6.808
  397LIG    OD2  687   1.880   1.407   7.028
  397LIG      C  688   1.649   1.539   6.748
  397LIG    OT1  689   1.553   1.554   6.652
  397LIG    OT2  690   1.783   1.556   6.729
  398LIG      N  691   1.935   0.809   4.366
  398LIG     H1  692   1.985   0.886   4.407
  398LIG     H2  693   1.980   0.782   4.280
  398LIG     H3  694   1.841   0.837   4.347
  398LIG     CA  695   1.934   0.692   4.462
  398LIG     HA  696   2.028   0.664   4.482
  398LIG     CB  697   1.868   0.735   4.591
  398LIG    HB1  698   1.774   0.765   4.572
  398LIG    HB2  699   1.918   0.810   4.631
  398LIG     CG  700   1.863   0.621   4.688
  398LIG    OD1  701   1.757   0.539   4.675
  398LIG    OD2  702   1.950   0.605   4.774
  398LIG      C  703   1.857   0.572   4.400
  398LIG    OT1  704   1.804   0.590   4.275
  398LIG    OT2  705   1.847   0.459   4.475
  399LIG      N  706   4.974   4.138   9.530
  399LIG     H1  707   4.919   4.218   9.504
  399LIG     H2  708   5.007   4.149   9.623
  399LIG     H3  709   5.051   4.129   9.467
  399LIG     CA  710   4.888   4.013   9.521
  399LIG     HA  711   4.810   4.022   9.582
  399LIG     CB  712   4.837   3.999   9.379
  399LIG    HB1  713   4.914   3.992   9.316
  399LIG    HB2  714   4.782   4.078   9.355
  399LIG     CG  715   4.752   3.876   9.366
  399LIG    OD1  716   4.821   3.762   9.339
  399LIG    OD2  717   4.630   3.878   9.378
  399LIG      C  718   4.971   3.888   9.560
  399LIG    OT1  719   5.102   3.909   9.594
  399LIG    OT2  720   4.908   3.768   9.556
  400LIG      N  721   6.069   1.567   6.491
  400LIG     H1  722   6.137   1.525   6.432
  400LIG     H2  723   6.095   1.661   6.511
  400LIG     H3  724   6.062   1.515   6.576
  400LIG     CA  725   5.933   1.565   6.421
  400LIG     HA  726   5.939   1.616   6.336
  400LIG     CB  727   5.896   1.422   6.391
  400LIG    HB1  728   5.892   1.369   6.477
  400LIG    HB2  729   5.964   1.381   6.331
  400LIG     CG  730   5.762   1.416   6.324
  400LIG    OD1  731   5.656   1.412   6.408
  400LIG    OD2  732   5.750   1.413   6.201
  400LIG      C  733   5.826   1.630   6.513
  400LIG    OT1  734   5.867   1.676   6.635
  400LIG    OT2  735   5.699   1.635   6.464
  401LIG      N  736   6.632   0.331   3.175
  401LIG     H1  737   6.543   0.375   3.164
  401LIG     H2  738   6.651   0.318   3.272
  401LIG     H3  739   6.703   0.388   3.134
  401LIG     CA  740   6.631   0.196   3.105
  401LIG     HA  741   6.559   0.139   3.145
  401LIG     CB  742   6.600   0.217   2.958
  401LIG    HB1  743   6.670   0.277   2.918
  401LIG    HB2  744   6.511   0.261   2.948
  401LIG     CG  745   6.599   0.086   2.885
  401LIG    OD1  746   6.720   0.045   2.841
  401LIG    OD2  747   6.496   0.022   2.866
  401LIG      C  748   6.769   0.126   3.120
  401LIG    OT1  749   6.865   0.193   3.191
  401LIG    OT2  750   6.783   0.004   3.063
  402LIG      N  751   8.111   6.714   8.013
  402LIG     H1  752   8.070   6.789   8.065
  402LIG     H2  753   8.210   6.724   8.012
  402LIG     H3  754   8.076   6.716   7.919
  402LIG     CA  755   8.073   6.582   8.078
  402LIG     HA  756   8.107   6.580   8.172
  402LIG     CB  757   7.923   6.569   8.079
  402LIG    HB1  758   7.887   6.574   7.985
  402LIG    HB2  759   7.883   6.644   8.132
  402LIG     CG  760   7.882   6.439   8.141
  402LIG    OD1  761   7.877   6.334   8.056
  402LIG    OD2  762   7.853   6.429   8.261
  402LIG      C  763   8.135   6.464   7.998
  402LIG    OT1  764   8.210   6.496   7.888
  402LIG    OT2  765   8.111   6.338   8.044
  403LIG      N  766   9.696   4.977   7.728
  403LIG     H1  767   9.781   4.930   7.706
  403LIG     H2  768   9.618   4.917   7.709
  403LIG     H3  769   9.688   5.061   7.674
  403LIG     CA  770   9.695   5.013   7.876
  403LIG     HA  771   9.704   4.930   7.931
  403LIG     CB  772   9.814   5.103   7.905
  403LIG    HB1  773   9.808   5.186   7.849
  403LIG    HB2  774   9.898   5.055   7.883
  403LIG     CG  775   9.816   5.142   8.050
  403LIG    OD1  776   9.742   5.251   8.080
  403LIG    OD2  777   9.881   5.080   8.134
  403LIG      C  778   9.564   5.087   7.913
  403LIG    OT1  779   9.473   5.106   7.812
  403LIG    OT2  780   9.548   5.126   8.042
  404LIG      N  781   0.123   2.810   6.610
  404LIG     H1  782   0.146   2.854   6.524
  404LIG     H2  783   0.124   2.877   6.684
  404LIG     H3  784   0.189   2.737   6.629
  404LIG     CA  785  -0.016   2.748   6.601
  404LIG     HA  786  -0.083   2.820   6.581
  404LIG     CB  787  -0.017   2.648   6.488
  404LIG    HB1  788   0.051   2.576   6.506
  404LIG    HB2  789   0.005   2.693   6.402
  404LIG     CG  790  -0.152   2.584   6.477
  404LIG    OD1  791  -0.171   2.476   6.556
  404LIG    OD2  792  -0.239   2.626   6.400
  404LIG      C  793  -0.052   2.679   6.735
  404LIG    OT1  794   0.041   2.683   6.835
  404LIG    OT2  795  -0.175   2.618   6.742
  405LIG      N  796   9.295   6.230   5.443
  405LIG     H1  797   9.353   6.151   5.462
  405LIG     H2  798   9.304   6.256   5.347
  405LIG     H3  799   9.322   6.306   5.502
  405LIG     CA  800   9.150   6.194   5.472
  405LIG     HA  801   9.122   6.118   5.414
  405LIG     CB  802   9.137   6.153   5.617
  405LIG    HB1  803   9.168   6.229   5.676
  405LIG    HB2  804   9.195   6.074   5.635
  405LIG     CG  805   8.995   6.119   5.650
  405LIG    OD1  806   8.918   6.224   5.686
  405LIG    OD2  807   8.953   6.004   5.645
  405LIG      C  808   9.058   6.317   5.444
  405LIG    OT1  809   9.119   6.431   5.399
  405LIG    OT2  810   8.925   6.301   5.465
  406LIG      N  811   0.275   3.842   9.198
  406LIG     H1  812   0.265   3.861   9.296
  406LIG     H2  813   0.243   3.920   9.145
  406LIG     H3  814   0.222   3.760   9.175
  406LIG     CA  815   0.422   3.816   9.166
  406LIG     HA  816   0.475   3.897   9.190
  406LIG     CB  817   0.470   3.699   9.248
  406LIG    HB1  818   0.414   3.618   9.227
  406LIG    HB2  819   0.460   3.719   9.345
  406LIG     CG  820   0.614   3.669   9.218
  406LIG    OD1  821   0.634   3.588   9.112
  406LIG    OD2  822   0.706   3.715   9.286
  406LIG      C  823   0.438   3.785   9.015
  406LIG    OT1  824   0.325   3.786   8.938
  406LIG    OT2  825   0.564   3.760   8.970
  407LIG      N  826   3.424   8.619   1.057
  407LIG     H1  827   3.480   8.695   1.090
  407LIG     H2  828   3.483   8.540   1.038
  407LIG     H3  829   3.377   8.647   0.973
  407LIG     CA  830   3.321   8.582   1.162
  407LIG     HA  831   3.368   8.555   1.246
  407LIG     CB  832   3.234   8.702   1.190
  407LIG    HB1  833   3.189   8.732   1.106
  407LIG    HB2  834   3.291   8.777   1.224
  407LIG     CG  835   3.130   8.669   1.293
  407LIG    OD1  836   3.017   8.615   1.243
  407LIG    OD2  837   3.147   8.691   1.413
  407LIG      C  838   3.233   8.464   1.111
  407LIG    OT1  839   3.261   8.415   0.986
  407LIG    OT2  840   3.136   8.419   1.195
  408LIG      N  841   3.329   0.265   5.833
  408LIG     H1  842   3.302   0.265   5.736
  408LIG     H2  843   3.363   0.175   5.858
  408LIG     H3  844   3.251   0.290   5.890
  408LIG     CA  845   3.440   0.368   5.853
  408LIG     HA  846   3.518   0.344   5.796
  408LIG     CB  847   3.388   0.504   5.812
  408LIG    HB1  848   3.308   0.528   5.868
  408LIG    HB2  849   3.362   0.503   5.716
  408LIG     CG  850   3.494   0.608   5.832
  408LIG    OD1  851   3.499   0.661   5.957
  408LIG    OD2  852   3.570   0.643   5.742
  408LIG      C  853   3.483   0.370   6.002
  408LIG    OT1  854   3.419   0.284   6.087
  408LIG    OT2  855   3.582   0.457   6.036
  409LIG      N  856   0.398   4.789   6.784
  409LIG     H1  857   0.347   4.865   6.743
  409LIG     H2  858   0.403   4.713   6.719
  409LIG     H3  859   0.353   4.759   6.868
  409LIG     CA  860   0.539   4.835   6.818
  409LIG     HA  861   0.585   4.866   6.734
  409LIG     CB  862   0.531   4.951   6.915
  409LIG    HB1  863   0.483   4.922   6.998
  409LIG    HB2  864   0.480   5.026   6.873
  409LIG     CG  865   0.668   4.999   6.951
  409LIG    OD1  866   0.725   4.933   7.054
  409LIG    OD2  867   0.724   5.091   6.892
  409LIG      C  868   0.620   4.719   6.881
  409LIG    OT1  869   0.555   4.599   6.896
  409LIG    OT2  870   0.748   4.745   6.917
  410LIG      N  871   5.373   9.952   0.764
  410LIG     H1  872   5.422   9.936   0.679
  410LIG     H2  873   5.435   9.991   0.832
  410LIG     H3  874   5.336   9.865   0.798
  410LIG     CA  875   5.258  10.048   0.739
  410LIG     HA  876   5.294  10.135   0.704
  410LIG     CB  877   5.166   9.988   0.635
  410LIG    HB1  878   5.131   9.900   0.668
  410LIG    HB2  879   5.216   9.973   0.550
  410LIG     CG  880   5.051  10.080   0.608
  410LIG    OD1  881   4.946  10.065   0.692
  410LIG    OD2  882   5.051  10.162   0.516
  410LIG      C  883   5.180  10.074   0.870
  410LIG    OT1  884   5.224  10.010   0.983
  410LIG    OT2  885   5.074  10.159   0.864
  411LIG      N  886   5.258   7.678   0.375
  411LIG     H1  887   5.214   7.703   0.462
  411LIG     H2  888   5.248   7.752   0.309
  411LIG     H3  889   5.215   7.595   0.340
  411LIG     CA  890   5.405   7.651   0.400
  411LIG     HA  891   5.449   7.733   0.436
  411LIG     CB  892   5.419   7.539   0.501
  411LIG    HB1  893   5.373   7.457   0.466
  411LIG    HB2  894   5.376   7.566   0.587
  411LIG     CG  895   5.563   7.509   0.526
  411LIG    OD1  896   5.619   7.421   0.440
  411LIG    OD2  897   5.626   7.560   0.619
  411LIG      C  898   5.475   7.610   0.267
  411LIG    OT1  899   5.396   7.605   0.155
  411LIG    OT2  900   5.608   7.583   0.272
  412LIG      N  901   1.498   3.604   3.309
  412LIG     H1  902   1.573   3.547   3.275
  412LIG     H2  903   1.499   3.605   3.410
  412LIG     H3  904   1.411   3.567   3.277
  412LIG     CA  905   1.514   3.746   3.258
  412LIG     HA  906   1.601   3.783   3.289
  412LIG     CB  907   1.514   3.743   3.106
  412LIG    HB1  908   1.428   3.703   3.074
  412LIG    HB2  909   1.589   3.687   3.073
  412LIG     CG  910   1.528   3.882   3.051
  412LIG    OD1  911   1.412   3.950   3.038
  412LIG    OD2  912   1.637   3.929   3.020
  412LIG      C  913   1.398   3.835   3.309
  412LIG    OT1  914   1.304   3.775   3.389
  412LIG    OT2  915   1.398   3.966   3.271
  413LIG      N  916   4.256   1.587   9.123
  413LIG     H1  917   4.157   1.580   9.137
  413LIG     H2  918   4.303   1.513   9.171
  413LIG     H3  919   4.288   1.675   9.158
  413LIG     CA  920   4.288   1.579   8.974
  413LIG     HA  921   4.255   1.492   8.938
  413LIG     CB  922   4.216   1.691   8.903
  413LIG    HB1  923   4.246   1.780   8.940
  413LIG    HB2  924   4.118   1.683   8.916
  413LIG     CG  925   4.246   1.687   8.756
  413LIG    OD1  926   4.358   1.752   8.719
  413LIG    OD2  927   4.172   1.630   8.675
  413LIG      C  928   4.441   1.591   8.952
  413LIG    OT1  929   4.519   1.606   9.062
  413LIG    OT2  930   4.485   1.585   8.823
  414LIG      N  931   8.171   3.079   1.447
  414LIG     H1  932   8.096   3.033   1.493
  414LIG     H2  933   8.251   3.080   1.507
  414LIG     H3  934   8.144   3.173   1.426
  414LIG     CA  935   8.205   3.007   1.318
  414LIG     HA  936   8.231   2.913   1.339
  414LIG     CB  937   8.082   3.005   1.229
  414LIG    HB1  938   8.053   3.100   1.210
  414LIG    HB2  939   8.008   2.958   1.276
  414LIG     CG  940   8.112   2.936   1.100
  414LIG    OD1  941   8.165   3.015   1.004
  414LIG    OD2  942   8.089   2.816   1.083
  414LIG      C  943   8.321   3.079   1.245
  414LIG    OT1  944   8.373   3.191   1.306
  414LIG    OT2  945   8.363   3.026   1.127
  415LIG      N  946   9.075   6.333   6.004
  415LIG     H1  947   9.103   6.282   5.923
  415LIG     H2  948   9.078   6.273   6.084
  415LIG     H3  949   8.982   6.368   5.991
  415LIG     CA  950   9.169   6.451   6.025
  415LIG     HA  951   9.262   6.417   6.038
  415LIG     CB  952   9.165   6.540   5.903
  415LIG    HB1  953   9.071   6.572   5.888
  415LIG    HB2  954   9.194   6.489   5.823
  415LIG     CG  955   9.255   6.658   5.922
  415LIG    OD1  956   9.199   6.763   5.985
  415LIG    OD2  957   9.371   6.659   5.881
  415LIG      C  958   9.125   6.531   6.151
  415LIG    OT1  959   9.015   6.486   6.219
  415LIG    OT2  960   9.200   6.640   6.184
  416LIG      N  961   7.834   7.210   2.828
  416LIG     H1  962   7.919   7.159   2.813
  416LIG     H2  963   7.817   7.269   2.749
  416LIG     H3  964   7.843   7.266   2.910
  416LIG     CA  965   7.718   7.114   2.845
  416LIG     HA  966   7.709   7.058   2.764
  416LIG     CB  967   7.746   7.025   2.964
  416LIG    HB1  968   7.758   7.081   3.047
  416LIG    HB2  969   7.830   6.973   2.949
  416LIG     CG  970   7.633   6.929   2.986
  416LIG    OD1  971   7.531   6.977   3.061
  416LIG    OD2  972   7.632   6.816   2.938
  416LIG      C  973   7.587   7.193   2.869
  416LIG    OT1  974   7.595   7.330   2.869
  416LIG    OT2  975   7.473   7.121   2.886
  417LIG      N  976   3.964   9.077   1.621
  417LIG     H1  977   3.944   9.164   1.667
  417LIG     H2  978   3.967   9.093   1.522
  417LIG     H3  979   3.892   9.011   1.642
  417LIG     CA  980   4.098   9.024   1.668
  417LIG     HA  981   4.169   9.090   1.648
  417LIG     CB  982   4.092   9.003   1.818
  417LIG    HB1  983   4.018   8.938   1.840
  417LIG    HB2  984   4.073   9.089   1.863
  417LIG     CG  985   4.222   8.948   1.868
  417LIG    OD1  986   4.233   8.813   1.862
  417LIG    OD2  987   4.311   9.020   1.913
  417LIG      C  988   4.129   8.889   1.597
  417LIG    OT1  989   4.037   8.843   1.508
  417LIG    OT2  990   4.247   8.828   1.629
  418LIG      N  991   9.191   7.639   3.826
  418LIG     H1  992   9.268   7.703   3.825
  418LIG     H2  993   9.113   7.681   3.779
  418LIG     H3  994   9.166   7.619   3.921
  418LIG     CA  995   9.229   7.510   3.756
  418LIG     HA  996   9.255   7.530   3.662
  418LIG     CB  997   9.348   7.449   3.827
  418LIG    HB1  998   9.324   7.431   3.923
  418LIG    HB2  999   9.425   7.513   3.825
  418LIG     CG 1000   9.389   7.321   3.762
  418LIG    OD1 1001   9.322   7.212   3.805
  418LIG    OD2 1002   9.476   7.316   3.675
  418LIG      C 1003   9.110   7.411   3.758
  418LIG    OT1 1004   8.995   7.452   3.819
  418LIG    OT2 1005   9.129   7.290   3.699
  419LIG      N 1006   0.629   2.160   3.362
  419LIG     H1 1007   0.604   2.079   3.415
  419LIG     H2 1008   0.605   2.145   3.266
  419LIG     H3 1009   0.727   2.177   3.371
  419LIG     CA 1010   0.553   2.281   3.415
  419LIG     HA 1011   0.455   2.264   3.407
  419LIG     CB 1012   0.588   2.301   3.561
  419LIG    HB1 1013   0.687   2.315   3.569
  419LIG    HB2 1014   0.563   2.220   3.613
  419LIG     CG 1015   0.517   2.420   3.616
  419LIG    OD1 1016   0.579   2.538   3.597
  419LIG    OD2 1017   0.409   2.411   3.675
  419LIG      C 1018   0.591   2.407   3.333
  419LIG    OT1 1019   0.682   2.391   3.232
  419LIG    OT2 1020   0.531   2.524   3.369
  420LIG      N 1021   6.597   5.522   9.167
  420LIG     H1 1022   6.533   5.452   9.199
  420LIG     H2 1023   6.612   5.510   9.069
  420LIG     H3 1024   6.684   5.512   9.216
  420LIG     CA 1025   6.540   5.660   9.193
  420LIG     HA 1026   6.453   5.670   9.145
  420LIG     CB 1027   6.517   5.676   9.342
  420LIG    HB1 1028   6.603   5.663   9.391
  420LIG    HB2 1029   6.452   5.607   9.373
  420LIG     CG 1030   6.462   5.812   9.372
  420LIG    OD1 1031   6.555   5.908   9.389
  420LIG    OD2 1032   6.341   5.834   9.381
  420LIG      C 1033   6.640   5.769   9.144
  420LIG    OT1 1034   6.757   5.725   9.087
  420LIG    OT2 1035   6.603   5.899   9.161
  421LIG      N 1036   4.715  10.019   7.938
  421LIG     H1 1037   4.724   9.920   7.946
  421LIG     H2 1038   4.742  10.048   7.846
  421LIG     H3 1039   4.773  10.063   8.006
  421LIG     CA 1040   4.570  10.058   7.963
  421LIG     HA 1041   4.511  10.013   7.896
  421LIG     CB 1042   4.530  10.012   8.101
  421LIG    HB1 1043   4.590  10.054   8.170
  421LIG    HB2 1044   4.539   9.913   8.108
  421LIG     CG 1045   4.388  10.050   8.130
  421LIG    OD1 1046   4.372  10.174   8.180
  421LIG    OD2 1047   4.294   9.973   8.110
  421LIG      C 1048   4.554  10.212   7.952
  421LIG    OT1 1049   4.666  10.285   7.923
  421LIG    OT2 1050   4.429  10.263   7.972
  422LIG      N 1051   9.475   8.593   3.774
  422LIG     H1 1052   9.518   8.674   3.734
  422LIG     H2 1053   9.415   8.550   3.706
  422LIG     H3 1054   9.422   8.619   3.854
  422LIG     CA 1055   9.583   8.494   3.816
  422LIG     HA 1056   9.637   8.468   3.736
  422LIG     CB 1057   9.674   8.561   3.916
  422LIG    HB1 1058   9.620   8.590   3.996
  422LIG    HB2 1059   9.717   8.641   3.875
  422LIG     CG 1060   9.781   8.466   3.961
  422LIG    OD1 1061   9.746   8.386   4.065
  422LIG    OD2 1062   9.892   8.462   3.909
  422LIG      C 1063   9.518   8.368   3.879
  422LIG    OT1 1064   9.381   8.365   3.886
  422LIG    OT2 1065   9.602   8.270   3.922
  423LIG      N 1066   0.160   8.180   7.487
  423LIG     H1 1067   0.070   8.136   7.475
  423LIG     H2 1068   0.214   8.167   7.404
  423LIG     H3 1069   0.207   8.138   7.565
  423LIG     CA 1070   0.140   8.328   7.513
  423LIG     HA 1071   0.092   8.369   7.436
  423LIG     CB 1072   0.056   8.345   7.638
  423LIG    HB1 1073   0.102   8.301   7.716
  423LIG    HB2 1074  -0.033   8.302   7.625
  423LIG     CG 1075   0.036   8.490   7.668
  423LIG    OD1 1076   0.134   8.547   7.742
  423LIG    OD2 1077  -0.063   8.552   7.630
  423LIG      C 1078   0.278   8.397   7.533
  423LIG    OT1 1079   0.389   8.318   7.523
  423LIG    OT2 1080   0.277   8.531   7.557
  424LIG      N 1081   8.601   8.184   9.549
  424LIG     H1 1082   8.541   8.238   9.609
  424LIG     H2 1083   8.675   8.145   9.604
  424LIG     H3 1084   8.638   8.243   9.478
  424LIG     CA 1085   8.520   8.072   9.485
  424LIG     HA 1086   8.482   8.014   9.556
  424LIG     CB 1087   8.407   8.133   9.405
  424LIG    HB1 1088   8.445   8.194   9.335
  424LIG    HB2 1089   8.348   8.186   9.465
  424LIG     CG 1090   8.327   8.025   9.339
  424LIG    OD1 1091   8.374   7.985   9.219
  424LIG    OD2 1092   8.225   7.978   9.390
  424LIG      C 1093   8.612   7.988   9.392
  424LIG    OT1 1094   8.743   8.025   9.383
  424LIG    OT2 1095   8.554   7.883   9.327
  425LIG      N 1096   0.534   3.300   6.369
  425LIG     H1 1097   0.486   3.373   6.320
  425LIG     H2 1098   0.480   3.216   6.363
  425LIG     H3 1099   0.546   3.326   6.465
  425LIG     CA 1100   0.670   3.277   6.305
  425LIG     HA 1101   0.658   3.252   6.209
  425LIG     CB 1102   0.750   3.405   6.313
  425LIG    HB1 1103   0.760   3.432   6.409
  425LIG    HB2 1104   0.702   3.477   6.263
  425LIG     CG 1105   0.885   3.386   6.252
  425LIG    OD1 1106   0.979   3.337   6.336
  425LIG    OD2 1107   0.909   3.413   6.134
  425LIG      C 1108   0.745   3.163   6.379
  425LIG    OT1 1109   0.680   3.105   6.485
  425LIG    OT2 1110   0.869   3.131   6.334
  426LIG      N 1111   5.580   7.985   9.366
  426LIG     H1 1112   5.638   8.020   9.292
  426LIG     H2 1113   5.593   8.041   9.447
  426LIG     H3 1114   5.606   7.890   9.386
  426LIG     CA 1115   5.435   7.988   9.323
  426LIG     HA 1116   5.409   8.082   9.302
  426LIG     CB 1117   5.418   7.904   9.198
  426LIG    HB1 1118   5.447   7.810   9.218
  426LIG    HB2 1119   5.475   7.941   9.125
  426LIG     CG 1120   5.275   7.904   9.154
  426LIG    OD1 1121   5.197   7.810   9.213
  426LIG    OD2 1122   5.232   7.983   9.070
  426LIG      C 1123   5.345   7.933   9.437
  426LIG    OT1 1124   5.407   7.892   9.551
  426LIG    OT2 1125   5.210   7.930   9.413
  427LIG      N 1126   0.620   3.780   5.026
  427LIG     H1 1127   0.521   3.789   5.022
  427LIG     H2 1128   0.652   3.802   5.119
  427LIG     H3 1129   0.662   3.843   4.960
  427LIG     CA 1130   0.660   3.638   4.991
  427LIG     HA 1131   0.618   3.575   5.056
  427LIG     CB 1132   0.610   3.606   4.852
  427LIG    HB1 1133   0.650   3.671   4.786
  427LIG    HB2 1134   0.511   3.614   4.849
  427LIG     CG 1135   0.649   3.467   4.813
  427LIG    OD1 1136   0.771   3.455   4.758
  427LIG    OD2 1137   0.573   3.371   4.829
  427LIG      C 1138   0.814   3.623   4.997
  427LIG    OT1 1139   0.887   3.734   5.030
  427LIG    OT2 1140   0.866   3.500   4.967
  428LIG      N 1141   8.565   5.686   3.885
  428LIG     H1 1142   8.650   5.712   3.932
  428LIG     H2 1143   8.528   5.602   3.926
  428LIG     H3 1144   8.584   5.670   3.788
  428LIG     CA 1145   8.464   5.798   3.898
  428LIG     HA 1146   8.445   5.815   3.995
  428LIG     CB 1147   8.522   5.924   3.837
  428LIG    HB1 1148   8.543   5.907   3.741
  428LIG    HB2 1149   8.605   5.949   3.885
  428LIG     CG 1150   8.424   6.037   3.847
  428LIG    OD1 1151   8.334   6.043   3.746
  428LIG    OD2 1152   8.425   6.117   3.940
  428LIG      C 1153   8.332   5.760   3.825
  428LIG    OT1 1154   8.328   5.637   3.764
  428LIG    OT2 1155   8.231   5.851   3.828
  429LIG      N 1156   4.097   7.964  10.000
  429LIG     H1 1157   4.005   7.963  10.039
  429LIG     H2 1158   4.164   7.981  10.072
  429LIG     H3 1159   4.103   8.037   9.931
  429LIG     CA 1160   4.126   7.831   9.933
  429LIG     HA 1161   4.120   7.758  10.001
  429LIG     CB 1162   4.023   7.806   9.825
  429LIG    HB1 1163   4.027   7.881   9.758
  429LIG    HB2 1164   3.932   7.804   9.865
  429LIG     CG 1165   4.049   7.676   9.756
  429LIG    OD1 1166   4.137   7.683   9.654
  429LIG    OD2 1167   3.994   7.571   9.790
  429LIG      C 1168   4.268   7.832   9.871
  429LIG    OT1 1169   4.342   7.947   9.885
  429LIG    OT2 1170   4.309   7.719   9.807
  430LIG      N 1171   9.358   4.032   1.091
  430LIG     H1 1172   9.357   3.991   1.182
  430LIG     H2 1173   9.445   4.010   1.045
  430LIG     H3 1174   9.348   4.132   1.099
  430LIG     CA 1175   9.242   3.977   1.009
  430LIG     HA 1176   9.252   3.878   1.002
  430LIG     CB 1177   9.113   4.009   1.080
  430LIG    HB1 1178   9.104   4.109   1.090
  430LIG    HB2 1179   9.112   3.968   1.170
  430LIG     CG 1180   8.996   3.958   1.002
  430LIG    OD1 1181   8.950   4.042   0.906
  430LIG    OD2 1182   8.945   3.848   1.023
  430LIG      C 1183   9.243   4.040   0.867
  430LIG    OT1 1184   9.341   4.131   0.839
  430LIG    OT2 1185   9.144   4.001   0.782
  431LIG      N 1186   1.710   6.032   6.276
  431LIG     H1 1187   1.708   6.062   6.181
  431LIG     H2 1188   1.684   5.935   6.280
  431LIG     H3 1189   1.647   6.087   6.330
  431LIG     CA 1190   1.851   6.048   6.331
  431LIG     HA 1191   1.914   5.994   6.277
  431LIG     CB 1192   1.890   6.194   6.322
  431LIG    HB1 1193   1.825   6.250   6.374
  431LIG    HB2 1194   1.889   6.223   6.227
  431LIG     CG 1195   2.028   6.214   6.377
  431LIG    OD1 1196   2.033   6.234   6.511
  431LIG    OD2 1197   2.128   6.214   6.306
  431LIG      C 1198   1.855   6.001   6.479
  431LIG    OT1 1199   1.738   5.955   6.534
  431LIG    OT2 1200   1.975   6.010   6.543
  432LIG      N 1201   0.411   0.572   5.263
  432LIG     H1 1202   0.344   0.556   5.335
  432LIG     H2 1203   0.402   0.666   5.229
  432LIG     H3 1204   0.397   0.507   5.189
  432LIG     CA 1205   0.551   0.554   5.320
  432LIG     HA 1206   0.566   0.618   5.394
  432LIG     CB 1207   0.564   0.412   5.372
  432LIG    HB1 1208   0.547   0.347   5.298
  432LIG    HB2 1209   0.497   0.397   5.445
  432LIG     CG 1210   0.702   0.389   5.427
  432LIG    OD1 1211   0.793   0.350   5.336
  432LIG    OD2 1212   0.728   0.404   5.547
  432LIG      C 1213   0.657   0.578   5.208
  432LIG    OT1 1214   0.610   0.611   5.084
  432LIG    OT2 1215   0.788   0.565   5.243
  433LIG      N 1216   0.234   3.326   8.747
  433LIG     H1 1217   0.141   3.344   8.715
  433LIG     H2 1218   0.234   3.314   8.846
  433LIG     H3 1219   0.293   3.404   8.723
  433LIG     CA 1220   0.288   3.201   8.680
  433LIG     HA 1221   0.229   3.123   8.703
  433LIG     CB 1222   0.287   3.221   8.531
  433LIG    HB1 1223   0.344   3.300   8.507
  433LIG    HB2 1224   0.194   3.237   8.499
  433LIG     CG 1225   0.340   3.099   8.461
  433LIG    OD1 1226   0.475   3.097   8.447
  433LIG    OD2 1227   0.267   3.010   8.419
  433LIG      C 1228   0.433   3.173   8.729
  433LIG    OT1 1229   0.487   3.260   8.819
  433LIG    OT2 1230   0.495   3.063   8.678
  434LIG      N 1231   3.214   0.263   4.826
  434LIG     H1 1232   3.152   0.322   4.877
  434LIG     H2 1233   3.257   0.198   4.889
  434LIG     H3 1234   3.284   0.319   4.782
  434LIG     CA 1235   3.136   0.187   4.720
  434LIG     HA 1236   3.065   0.132   4.763
  434LIG     CB 1237   3.071   0.287   4.627
  434LIG    HB1 1238   3.141   0.345   4.585
  434LIG    HB2 1239   3.008   0.345   4.678
  434LIG     CG 1240   2.994   0.217   4.519
  434LIG    OD1 1241   3.067   0.182   4.411
  434LIG    OD2 1242   2.874   0.192   4.529
  434LIG      C 1243   3.232   0.095   4.639
  434LIG    OT1 1244   3.364   0.096   4.675
  434LIG    OT2 1245   3.177   0.021   4.539
  435LIG      N 1246   1.002   0.372   9.720
  435LIG     H1 1247   1.099   0.384   9.696
  435LIG     H2 1248   0.995   0.315   9.802
  435LIG     H3 1249   0.955   0.327   9.644
  435LIG     CA 1250   0.939   0.507   9.746
  435LIG     HA 1251   0.986   0.553   9.821
  435LIG     CB 1252   0.952   0.592   9.621
  435LIG    HB1 1253   0.907   0.546   9.544
  435LIG    HB2 1254   1.048   0.605   9.599
  435LIG     CG 1255   0.889   0.726   9.642
  435LIG    OD1 1256   0.757   0.732   9.617
  435LIG    OD2 1257   0.954   0.825   9.679
  435LIG      C 1258   0.789   0.490   9.782
  435LIG    OT1 1259   0.740   0.362   9.785
  435LIG    OT2 1260   0.717   0.603   9.808
  436LIG      N 1261   8.758   9.724   5.339
  436LIG     H1 1262   8.841   9.748   5.289
  436LIG     H2 1263   8.689   9.795   5.323
  436LIG     H3 1264   8.778   9.718   5.437
  436LIG     CA 1265   8.706   9.590   5.290
  436LIG     HA 1266   8.686   9.595   5.192
  436LIG     CB 1267   8.812   9.485   5.314
  436LIG    HB1 1268   8.834   9.481   5.411
  436LIG    HB2 1269   8.894   9.509   5.263
  436LIG     CG 1270   8.764   9.351   5.268
  436LIG    OD1 1271   8.693   9.282   5.360
  436LIG    OD2 1272   8.788   9.307   5.156
  436LIG      C 1273   8.576   9.552   5.367
  436LIG    OT1 1274   8.531   9.641   5.461
  436LIG    OT2 1275   8.517   9.434   5.334
  437LIG      N 1276   0.199   1.747   7.561
  437LIG     H1 1277   0.233   1.654   7.551
  437LIG     H2 1278   0.152   1.775   7.476
  437LIG     H3 1279   0.275   1.809   7.579
  437LIG     CA 1280   0.101   1.753   7.677
  437LIG     HA 1281   0.025   1.691   7.659
  437LIG     CB 1282   0.172   1.709   7.803
  437LIG    HB1 1283   0.250   1.770   7.820
  437LIG    HB2 1284   0.205   1.616   7.793
  437LIG     CG 1285   0.079   1.715   7.920
  437LIG    OD1 1286   0.071   1.836   7.981
  437LIG    OD2 1287   0.015   1.617   7.959
  437LIG      C 1288   0.047   1.898   7.694
  437LIG    OT1 1289   0.093   1.992   7.606
  437LIG    OT2 1290  -0.043   1.919   7.794
  438LIG      N 1291   3.998   2.395   9.123
  438LIG     H1 1292   3.976   2.491   9.143
  438LIG     H2 1293   3.993   2.379   9.024
  438LIG     H3 1294   3.934   2.336   9.171
  438LIG     CA 1295   4.139   2.365   9.171
  438LIG     HA 1296   4.204   2.425   9.125
  438LIG     CB 1297   4.147   2.392   9.320
  438LIG    HB1 1298   4.080   2.334   9.368
  438LIG    HB2 1299   4.125   2.487   9.339
  438LIG     CG 1300   4.284   2.362   9.372
  438LIG    OD1 1301   4.305   2.233   9.406
  438LIG    OD2 1302   4.371   2.448   9.383
  438LIG      C 1303   4.175   2.217   9.142
  438LIG    OT1 1304   4.080   2.141   9.081
  438LIG    OT2 1305   4.299   2.175   9.180
  439LIG      N 1306   0.642   6.329   4.264
  439LIG     H1 1307   0.555   6.379   4.270
  439LIG     H2 1308   0.677   6.312   4.357
  439LIG     H3 1309   0.708   6.384   4.213
  439LIG     CA 1310   0.619   6.197   4.193
  439LIG     HA 1311   0.553   6.143   4.243
  439LIG     CB 1312   0.566   6.225   4.054
  439LIG    HB1 1313   0.631   6.282   4.004
  439LIG    HB2 1314   0.479   6.274   4.061
  439LIG     CG 1315   0.544   6.097   3.980
  439LIG    OD1 1316   0.652   6.049   3.915
  439LIG    OD2 1317   0.435   6.039   3.978
  439LIG      C 1318   0.753   6.119   4.183
  439LIG    OT1 1319   0.864   6.178   4.237
  439LIG    OT2 1320   0.750   5.997   4.121
  440LIG      N 1321   0.611   8.477   1.793
  440LIG     H1 1322   0.538   8.451   1.857
  440LIG     H2 1323   0.580   8.464   1.699
  440LIG     H3 1324   0.692   8.421   1.811
  440LIG     CA 1325   0.646   8.623   1.815
  440LIG     HA 1326   0.566   8.680   1.798
  440LIG     CB 1327   0.691   8.642   1.958
  440LIG    HB1 1328   0.771   8.584   1.976
  440LIG    HB2 1329   0.618   8.617   2.020
  440LIG     CG 1330   0.729   8.785   1.982
  440LIG    OD1 1331   0.856   8.817   1.951
  440LIG    OD2 1332   0.649   8.867   2.028
  440LIG      C 1333   0.760   8.665   1.718
  440LIG    OT1 1334   0.808   8.569   1.633
  440LIG    OT2 1335   0.803   8.794   1.725
  441LIG      N 1336   3.364   0.707   2.201
  441LIG     H1 1337   3.462   0.727   2.207
  441LIG     H2 1338   3.339   0.690   2.105
  441LIG     H3 1339   3.312   0.785   2.236
  441LIG     CA 1340   3.331   0.584   2.284
  441LIG     HA 1341   3.383   0.506   2.250
  441LIG     CB 1342   3.370   0.611   2.428
  441LIG    HB1 1343   3.320   0.691   2.462
  441LIG    HB2 1344   3.468   0.629   2.433
  441LIG     CG 1345   3.338   0.493   2.514
  441LIG    OD1 1346   3.211   0.490   2.562
  441LIG    OD2 1347   3.420   0.405   2.539
  441LIG      C 1348   3.179   0.554   2.276
  441LIG    OT1 1349   3.103   0.637   2.199
  441LIG    OT2 1350   3.133   0.446   2.346
  442LIG      N 1351   1.687   5.182   7.664
  442LIG     H1 1352   1.622   5.166   7.738
  442LIG     H2 1353   1.769   5.226   7.701
  442LIG     H3 1354   1.645   5.241   7.595
  442LIG     CA 1355   1.725   5.050   7.600
  442LIG     HA 1356   1.766   4.990   7.668
  442LIG     CB 1357   1.599   4.984   7.546
  442LIG    HB1 1358   1.556   5.045   7.479
  442LIG    HB2 1359   1.536   4.967   7.621
  442LIG     CG 1360   1.633   4.854   7.480
  442LIG    OD1 1361   1.668   4.863   7.350
  442LIG    OD2 1362   1.627   4.746   7.540
  442LIG      C 1363   1.825   5.074   7.484
  442LIG    OT1 1364   1.863   5.203   7.459
  442LIG    OT2 1365   1.869   4.964   7.416
  443LIG      N 1366   8.207   6.887   3.979
  443LIG     H1 1367   8.120   6.929   4.004
  443LIG     H2 1368   8.224   6.903   3.881
  443LIG     H3 1369   8.203   6.789   3.997
  443LIG     CA 1370   8.319   6.949   4.061
  443LIG     HA 1371   8.322   7.047   4.044
  443LIG     CB 1372   8.291   6.925   4.208
  443LIG    HB1 1373   8.284   6.827   4.225
  443LIG    HB2 1374   8.204   6.968   4.232
  443LIG     CG 1375   8.400   6.984   4.292
  443LIG    OD1 1376   8.506   6.902   4.312
  443LIG    OD2 1377   8.393   7.097   4.340
  443LIG      C 1378   8.455   6.884   4.022
  443LIG    OT1 1379   8.453   6.788   3.926
  443LIG    OT2 1380   8.565   6.929   4.088
  444LIG      N 1381   9.883   6.360   6.910
  444LIG     H1 1382   9.975   6.388   6.939
  444LIG     H2 1383   9.881   6.261   6.896
  444LIG     H3 1384   9.860   6.406   6.824
  444LIG     CA 1385   9.782   6.398   7.017
  444LIG     HA 1386   9.806   6.352   7.102
  444LIG     CB 1387   9.787   6.547   7.037
  444LIG    HB1 1388   9.766   6.594   6.951
  444LIG    HB2 1389   9.878   6.574   7.067
  444LIG     CG 1390   9.687   6.589   7.141
  444LIG    OD1 1391   9.563   6.612   7.094
  444LIG    OD2 1392   9.717   6.602   7.260
  444LIG      C 1393   9.640   6.355   6.972
  444LIG    OT1 1394   9.628   6.293   6.851
  444LIG    OT2 1395   9.537   6.383   7.058
  445LIG      N 1396   1.636   1.253   8.203
  445LIG     H1 1397   1.668   1.271   8.296
  445LIG     H2 1398   1.668   1.326   8.142
  445LIG     H3 1399   1.536   1.250   8.203
  445LIG     CA 1400   1.691   1.119   8.156
  445LIG     HA 1401   1.791   1.122   8.157
  445LIG     CB 1402   1.643   1.011   8.250
  445LIG    HB1 1403   1.543   1.009   8.251
  445LIG    HB2 1404   1.676   1.029   8.342
  445LIG     CG 1405   1.694   0.877   8.205
  445LIG    OD1 1406   1.616   0.815   8.114
  445LIG    OD2 1407   1.798   0.828   8.249
  445LIG      C 1408   1.641   1.090   8.012
  445LIG    OT1 1409   1.561   1.184   7.953
  445LIG    OT2 1410   1.682   0.973   7.955
  446LIG      N 1411   2.537   8.906   3.997
  446LIG     H1 1412   2.437   8.906   4.003
  446LIG     H2 1413   2.574   8.975   4.059
  446LIG     H3 1414   2.564   8.927   3.903
  446LIG     CA 1415   2.589   8.769   4.034
  446LIG     HA 1416   2.562   8.747   4.128
  446LIG     CB 1417   2.530   8.666   3.940
  446LIG    HB1 1418   2.555   8.689   3.846
  446LIG    HB2 1419   2.431   8.666   3.948
  446LIG     CG 1420   2.581   8.529   3.973
  446LIG    OD1 1421   2.699   8.497   3.915
  446LIG    OD2 1422   2.520   8.452   4.047
  446LIG      C 1423   2.744   8.767   4.024
  446LIG    OT1 1424   2.806   8.882   3.985
  446LIG    OT2 1425   2.807   8.650   4.055
  447LIG      N 1426   5.413   0.007   6.621
  447LIG     H1 1427   5.320   0.008   6.659
  447LIG     H2 1428   5.409   0.002   6.521
  447LIG     H3 1429   5.464  -0.071   6.657
  447LIG     CA 1430   5.485   0.135   6.662
  447LIG     HA 1431   5.434   0.214   6.627
  447LIG     CB 1432   5.489   0.143   6.813
  447LIG    HB1 1433   5.537   0.063   6.849
  447LIG    HB2 1434   5.396   0.144   6.849
  447LIG     CG 1435   5.560   0.267   6.857
  447LIG    OD1 1436   5.695   0.256   6.866
  447LIG    OD2 1437   5.501   0.372   6.883
  447LIG      C 1438   5.629   0.136   6.604
  447LIG    OT1 1439   5.667   0.027   6.531
  447LIG    OT2 1440   5.706   0.244   6.632
  448LIG      N 1441   1.485   2.373   5.228
  448LIG     H1 1442   1.580   2.354   5.255
  448LIG     H2 1443   1.450   2.296   5.175
  448LIG     H3 1444   1.483   2.456   5.172
  448LIG     CA 1445   1.400   2.394   5.352
  448LIG     HA 1446   1.402   2.311   5.408
  448LIG     CB 1447   1.455   2.509   5.432
  448LIG    HB1 1448   1.456   2.592   5.375
  448LIG    HB2 1449   1.549   2.489   5.459
  448LIG     CG 1450   1.373   2.533   5.554
  448LIG    OD1 1451   1.266   2.614   5.535
  448LIG    OD2 1452   1.400   2.484   5.663
  448LIG      C 1453   1.253   2.424   5.311
  448LIG    OT1 1454   1.225   2.427   5.177
  448LIG    OT2 1455   1.163   2.444   5.411
  449LIG      N 1456   8.208   9.206   2.441
  449LIG     H1 1457   8.210   9.184   2.344
  449LIG     H2 1458   8.223   9.304   2.455
  449LIG     H3 1459   8.279   9.154   2.488
  449LIG     CA 1460   8.073   9.168   2.499
  449LIG     HA 1461   8.001   9.219   2.452
  449LIG     CB 1462   8.050   9.020   2.477
  449LIG    HB1 1463   8.123   8.967   2.522
  449LIG    HB2 1464   8.051   8.999   2.380
  449LIG     CG 1465   7.918   8.978   2.534
  449LIG    OD1 1466   7.921   8.945   2.665
  449LIG    OD2 1467   7.816   8.973   2.466
  449LIG      C 1468   8.069   9.200   2.651
  449LIG    OT1 1469   8.181   9.254   2.706
  449LIG    OT2 1470   7.953   9.171   2.717
  450LIG      N 1471   4.083   0.399   3.814
  450LIG     H1 1472   4.035   0.354   3.889
  450LIG     H2 1473   4.042   0.370   3.727
  450LIG     H3 1474   4.180   0.375   3.816
  450LIG     CA 1475   4.069   0.550   3.828
  450LIG     HA 1476   3.972   0.575   3.826
  450LIG     CB 1477   4.129   0.592   3.960
  450LIG    HB1 1478   4.226   0.565   3.963
  450LIG    HB2 1479   4.081   0.548   4.035
  450LIG     CG 1480   4.119   0.741   3.977
  450LIG    OD1 1481   4.220   0.811   3.922
  450LIG    OD2 1482   4.025   0.794   4.036
  450LIG      C 1483   4.143   0.621   3.711
  450LIG    OT1 1484   4.205   0.541   3.619
  450LIG    OT2 1485   4.139   0.757   3.709
  451LIG      N 1486   3.576   9.162   8.856
  451LIG     H1 1487   3.583   9.110   8.941
  451LIG     H2 1488   3.567   9.100   8.778
  451LIG     H3 1489   3.657   9.219   8.845
  451LIG     CA 1490   3.453   9.252   8.862
  451LIG     HA 1491   3.371   9.196   8.873
  451LIG     CB 1492   3.466   9.345   8.980
  451LIG    HB1 1493   3.550   9.400   8.971
  451LIG    HB2 1494   3.472   9.292   9.064
  451LIG     CG 1495   3.348   9.436   8.989
  451LIG    OD1 1496   3.358   9.549   8.915
  451LIG    OD2 1497   3.249   9.411   9.058
  451LIG      C 1498   3.441   9.335   8.731
  451LIG    OT1 1499   3.538   9.315   8.636
  451LIG    OT2 1500   3.336   9.420   8.721
  452LIG      N 1501   4.789   8.194   1.620
  452LIG     H1 1502   4.692   8.177   1.604
  452LIG     H2 1503   4.822   8.131   1.691
  452LIG     H3 1504   4.801   8.289   1.651
  452LIG     CA 1505   4.867   8.173   1.492
  452LIG     HA 1506   4.854   8.079   1.460
  452LIG     CB 1507   4.814   8.267   1.386
  452LIG    HB1 1508   4.824   8.362   1.418
  452LIG    HB2 1509   4.718   8.249   1.369
  452LIG     CG 1510   4.890   8.250   1.258
  452LIG    OD1 1511   5.003   8.323   1.249
  452LIG    OD2 1512   4.851   8.176   1.168
  452LIG      C 1513   5.018   8.200   1.516
  452LIG    OT1 1514   5.055   8.236   1.643
  452LIG    OT2 1515   5.102   8.184   1.410
  453LIG      N 1516   1.771   7.821   0.976
  453LIG     H1 1517   1.759   7.838   0.878
  453LIG     H2 1518   1.723   7.738   1.002
  453LIG     H3 1519   1.734   7.899   1.028
  453LIG     CA 1520   1.919   7.807   1.008
  453LIG     HA 1521   1.957   7.730   0.957
  453LIG     CB 1522   1.991   7.933   0.967
  453LIG    HB1 1523   1.951   8.012   1.016
  453LIG    HB2 1524   1.979   7.948   0.869
  453LIG     CG 1525   2.137   7.923   0.998
  453LIG    OD1 1526   2.170   7.960   1.124
  453LIG    OD2 1527   2.219   7.886   0.916
  453LIG      C 1528   1.938   7.782   1.160
  453LIG    OT1 1529   1.825   7.778   1.238
  453LIG    OT2 1530   2.066   7.767   1.205
  454LIG      N 1531   6.978   9.721   9.844
  454LIG     H1 1532   6.935   9.783   9.778
  454LIG     H2 1533   6.980   9.763   9.934
  454LIG     H3 1534   7.072   9.700   9.814
  454LIG     CA 1535   6.899   9.591   9.851
  454LIG     HA 1536   6.806   9.611   9.880
  454LIG     CB 1537   6.895   9.528   9.713
  454LIG    HB1 1538   6.989   9.510   9.682
  454LIG    HB2 1539   6.852   9.591   9.649
  454LIG     CG 1540   6.819   9.400   9.716
  454LIG    OD1 1541   6.892   9.291   9.750
  454LIG    OD2 1542   6.699   9.393   9.689
  454LIG      C 1543   6.965   9.494   9.952
  454LIG    OT1 1544   7.078   9.537  10.015
  454LIG    OT2 1545   6.905   9.372   9.969
  455LIG      N 1546   9.310   3.437   3.630
  455LIG     H1 1547   9.405   3.463   3.646
  455LIG     H2 1548   9.263   3.509   3.578
  455LIG     H3 1549   9.264   3.424   3.718
  455LIG     CA 1550   9.304   3.307   3.552
  455LIG     HA 1551   9.351   3.319   3.464
  455LIG     CB 1552   9.376   3.199   3.631
  455LIG    HB1 1553   9.332   3.188   3.720
  455LIG    HB2 1554   9.471   3.225   3.645
  455LIG     CG 1555   9.372   3.069   3.557
  455LIG    OD1 1556   9.261   2.994   3.580
  455LIG    OD2 1557   9.463   3.032   3.483
  455LIG      C 1558   9.157   3.265   3.528
  455LIG    OT1 1559   9.060   3.347   3.578
  455LIG    OT2 1560   9.135   3.150   3.458
  456LIG      N 1561   6.380   0.585   5.398
  456LIG     H1 1562   6.325   0.669   5.398
  456LIG     H2 1563   6.369   0.537   5.311
  456LIG     H3 1564   6.352   0.526   5.474
  456LIG     CA 1565   6.527   0.623   5.417
  456LIG     HA 1566   6.556   0.682   5.343
  456LIG     CB 1567   6.542   0.697   5.548
  456LIG    HB1 1568   6.510   0.638   5.624
  456LIG    HB2 1569   6.487   0.780   5.546
  456LIG     CG 1570   6.685   0.734   5.571
  456LIG    OD1 1571   6.759   0.638   5.631
  456LIG    OD2 1572   6.731   0.843   5.539
  456LIG      C 1573   6.614   0.494   5.419
  456LIG    OT1 1574   6.550   0.375   5.403
  456LIG    OT2 1575   6.748   0.511   5.435
  457LIG      N 1576   5.398   9.826   4.545
  457LIG     H1 1577   5.347   9.741   4.528
  457LIG     H2 1578   5.480   9.806   4.599
  457LIG     H3 1579   5.340   9.890   4.595
  457LIG     CA 1580   5.438   9.888   4.412
  457LIG     HA 1581   5.496   9.824   4.362
  457LIG     CB 1582   5.314   9.917   4.332
  457LIG    HB1 1583   5.254   9.979   4.383
  457LIG    HB2 1584   5.264   9.832   4.314
  457LIG     CG 1585   5.349   9.980   4.201
  457LIG    OD1 1586   5.363  10.114   4.204
  457LIG    OD2 1587   5.364   9.914   4.098
  457LIG      C 1588   5.517  10.020   4.437
  457LIG    OT1 1589   5.536  10.057   4.568
  457LIG    OT2 1590   5.560  10.088   4.328
  458LIG      N 1591   8.420   3.046   2.042
  458LIG     H1 1592   8.443   3.139   2.013
  458LIG     H2 1593   8.402   3.044   2.140
  458LIG     H3 1594   8.496   2.985   2.020
  458LIG     CA 1595   8.296   2.998   1.967
  458LIG     HA 1596   8.220   3.059   1.988
  458LIG     CB 1597   8.324   3.003   1.819
  458LIG    HB1 1598   8.403   2.944   1.798
  458LIG    HB2 1599   8.346   3.096   1.791
  458LIG     CG 1600   8.205   2.955   1.742
  458LIG    OD1 1601   8.198   2.822   1.724
  458LIG    OD2 1602   8.120   3.033   1.697
  458LIG      C 1603   8.261   2.854   2.010
  458LIG    OT1 1604   8.341   2.794   2.103
  458LIG    OT2 1605   8.151   2.797   1.952
  459LIG      N 1606   6.053   1.114  10.010
  459LIG     H1 1607   6.046   1.016  10.028
  459LIG     H2 1608   6.117   1.155  10.075
  459LIG     H3 1609   5.963   1.156  10.020
  459LIG     CA 1610   6.102   1.137   9.868
  459LIG     HA 1611   6.192   1.094   9.857
  459LIG     CB 1612   6.005   1.073   9.771
  459LIG    HB1 1613   5.914   1.113   9.784
  459LIG    HB2 1614   5.999   0.975   9.789
  459LIG     CG 1615   6.050   1.094   9.630
  459LIG    OD1 1616   6.009   1.210   9.575
  459LIG    OD2 1617   6.118   1.012   9.569
  459LIG      C 1618   6.113   1.289   9.839
  459LIG    OT1 1619   6.078   1.374   9.940
  459LIG    OT2 1620   6.156   1.326   9.715
  460LIG      N 1621   4.132   6.521   0.276
  460LIG     H1 1622   4.056   6.467   0.312
  460LIG     H2 1623   4.138   6.510   0.177
  460LIG     H3 1624   4.218   6.490   0.318
  460LIG     CA 1625   4.111   6.668   0.309
  460LIG     HA 1626   4.025   6.699   0.267
  460LIG     CB 1627   4.101   6.683   0.459
  460LIG    HB1 1628   4.186   6.650   0.502
  460LIG    HB2 1629   4.024   6.630   0.493
  460LIG     CG 1630   4.081   6.827   0.495
  460LIG    OD1 1631   4.195   6.899   0.508
  460LIG    OD2 1632   3.969   6.876   0.514
  460LIG      C 1633   4.229   6.753   0.254
  460LIG    OT1 1634   4.329   6.686   0.189
  460LIG    OT2 1635   4.224   6.887   0.276
  461LIG      N 1636   9.894   0.162   2.049
  461LIG     H1 1637   9.969   0.110   2.007
  461LIG     H2 1638   9.927   0.208   2.131
  461LIG     H3 1639   9.819   0.099   2.072
  461LIG     CA 1640   9.843   0.265   1.950
  461LIG     HA 1641   9.917   0.327   1.925
  461LIG     CB 1642   9.794   0.194   1.825
  461LIG    HB1 1643   9.721   0.129   1.850
  461LIG    HB2 1644   9.869   0.143   1.784
  461LIG     CG 1645   9.741   0.292   1.726
  461LIG    OD1 1646   9.611   0.325   1.742
  461LIG    OD2 1647   9.811   0.339   1.635
  461LIG      C 1648   9.726   0.346   2.013
  461LIG    OT1 1649   9.690   0.313   2.141
  461LIG    OT2 1650   9.669   0.443   1.936
  462LIG      N 1651   2.415   9.452   3.259
  462LIG     H1 1652   2.498   9.478   3.210
  462LIG     H2 1653   2.409   9.352   3.266
  462LIG     H3 1654   2.335   9.487   3.211
  462LIG     CA 1655   2.418   9.511   3.399
  462LIG     HA 1656   2.499   9.477   3.448
  462LIG     CB 1657   2.428   9.662   3.387
  462LIG    HB1 1658   2.349   9.697   3.336
  462LIG    HB2 1659   2.511   9.687   3.339
  462LIG     CG 1660   2.430   9.725   3.523
  462LIG    OD1 1661   2.308   9.749   3.577
  462LIG    OD2 1662   2.535   9.753   3.581
  462LIG      C 1663   2.290   9.472   3.477
  462LIG    OT1 1664   2.198   9.395   3.411
  462LIG    OT2 1665   2.278   9.519   3.604
  463LIG      N 1666   2.294   7.957   7.980
  463LIG     H1 1667   2.327   8.043   8.018
  463LIG     H2 1668   2.195   7.949   7.996
  463LIG     H3 1669   2.341   7.881   8.023
  463LIG     CA 1670   2.321   7.953   7.830
  463LIG     HA 1671   2.274   8.030   7.786
  463LIG     CB 1672   2.470   7.967   7.807
  463LIG    HB1 1673   2.518   7.892   7.854
  463LIG    HB2 1674   2.502   8.053   7.845
  463LIG     CG 1675   2.501   7.962   7.661
  463LIG    OD1 1676   2.517   7.838   7.610
  463LIG    OD2 1677   2.512   8.064   7.593
  463LIG      C 1678   2.270   7.819   7.770
  463LIG    OT1 1679   2.212   7.731   7.856
  463LIG    OT2 1680   2.288   7.801   7.636
  464LIG      N 1681   8.449   0.831   1.585
  464LIG     H1 1682   8.373   0.894   1.569
  464LIG     H2 1683   8.472   0.830   1.682
  464LIG     H3 1684   8.528   0.859   1.531
  464LIG     CA 1685   8.407   0.691   1.542
  464LIG     HA 1686   8.327   0.662   1.595
  464LIG     CB 1687   8.371   0.693   1.395
  464LIG    HB1 1688   8.449   0.725   1.341
  464LIG    HB2 1689   8.295   0.756   1.380
  464LIG     CG 1690   8.330   0.557   1.349
  464LIG    OD1 1691   8.433   0.478   1.309
  464LIG    OD2 1692   8.213   0.520   1.346
  464LIG      C 1693   8.524   0.591   1.566
  464LIG    OT1 1694   8.639   0.642   1.618
  464LIG    OT2 1695   8.502   0.461   1.532
  465LIG      N 1696   0.248   8.795   3.910
  465LIG     H1 1697   0.300   8.875   3.940
  465LIG     H2 1698   0.245   8.792   3.810
  465LIG     H3 1699   0.155   8.800   3.946
  465LIG     CA 1700   0.315   8.668   3.962
  465LIG     HA 1701   0.408   8.663   3.927
  465LIG     CB 1702   0.319   8.675   4.113
  465LIG    HB1 1703   0.226   8.683   4.150
  465LIG    HB2 1704   0.372   8.754   4.142
  465LIG     CG 1705   0.383   8.551   4.169
  465LIG    OD1 1706   0.298   8.447   4.188
  465LIG    OD2 1707   0.503   8.545   4.195
  465LIG      C 1708   0.234   8.543   3.917
  465LIG    OT1 1709   0.122   8.565   3.841
  465LIG    OT2 1710   0.281   8.422   3.956
  466LIG      N 1711   8.573   3.685   3.221
  466LIG     H1 1712   8.629   3.746   3.164
  466LIG     H2 1713   8.491   3.733   3.251
  466LIG     H3 1714   8.627   3.655   3.300
  466LIG     CA 1715   8.533   3.563   3.139
  466LIG     HA 1716   8.481   3.592   3.060
  466LIG     CB 1717   8.659   3.492   3.092
  466LIG    HB1 1718   8.714   3.465   3.172
  466LIG    HB2 1719   8.712   3.554   3.035
  466LIG     CG 1720   8.623   3.370   3.013
  466LIG    OD1 1721   8.603   3.259   3.086
  466LIG    OD2 1722   8.614   3.372   2.890
  466LIG      C 1723   8.448   3.467   3.226
  466LIG    OT1 1724   8.423   3.505   3.355
  466LIG    OT2 1725   8.404   3.352   3.167
  467LIG      N 1726   2.177   0.638   1.281
  467LIG     H1 1727   2.223   0.582   1.212
  467LIG     H2 1728   2.120   0.580   1.339
  467LIG     H3 1729   2.120   0.707   1.236
  467LIG     CA 1730   2.281   0.708   1.368
  467LIG     HA 1731   2.338   0.640   1.412
  467LIG     CB 1732   2.367   0.795   1.279
  467LIG    HB1 1733   2.310   0.862   1.232
  467LIG    HB2 1734   2.413   0.739   1.211
  467LIG     CG 1735   2.470   0.867   1.361
  467LIG    OD1 1736   2.428   0.984   1.414
  467LIG    OD2 1737   2.584   0.823   1.378
  467LIG      C 1738   2.210   0.796   1.475
  467LIG    OT1 1739   2.073   0.796   1.475
  467LIG    OT2 1740   2.290   0.865   1.560
  468LIG      N 1741   2.195   2.921   4.599
  468LIG     H1 1742   2.160   2.840   4.646
  468LIG     H2 1743   2.149   2.931   4.511
  468LIG     H3 1744   2.293   2.913   4.586
  468LIG     CA 1745   2.166   3.044   4.685
  468LIG     HA 1746   2.068   3.053   4.699
  468LIG     CB 1747   2.234   3.027   4.819
  468LIG    HB1 1748   2.333   3.016   4.805
  468LIG    HB2 1749   2.198   2.946   4.865
  468LIG     CG 1750   2.209   3.147   4.905
  468LIG    OD1 1751   2.297   3.249   4.888
  468LIG    OD2 1752   2.117   3.152   4.986
  468LIG      C 1753   2.220   3.171   4.614
  468LIG    OT1 1754   2.281   3.154   4.493
  468LIG    OT2 1755   2.202   3.290   4.678
  469LIG      N 1756   9.184   6.753   6.781
  469LIG     H1 1757   9.166   6.689   6.707
  469LIG     H2 1758   9.161   6.711   6.869
  469LIG     H3 1759   9.129   6.836   6.768
  469LIG     CA 1760   9.331   6.791   6.781
  469LIG     HA 1761   9.387   6.709   6.792
  469LIG     CB 1762   9.365   6.855   6.647
  469LIG    HB1 1763   9.308   6.936   6.633
  469LIG    HB2 1764   9.347   6.790   6.574
  469LIG     CG 1765   9.509   6.895   6.644
  469LIG    OD1 1766   9.535   7.017   6.694
  469LIG    OD2 1767   9.597   6.822   6.597
  469LIG      C 1768   9.361   6.891   6.896
  469LIG    OT1 1769   9.256   6.928   6.975
  469LIG    OT2 1770   9.489   6.935   6.908
  470LIG      N 1771   0.130   5.950   1.766
  470LIG     H1 1772   0.194   5.997   1.827
  470LIG     H2 1773   0.125   5.853   1.791
  470LIG     H3 1774   0.162   5.959   1.671
  470LIG     CA 1775  -0.008   6.013   1.777
  470LIG     HA 1776  -0.040   6.006   1.871
  470LIG     CB 1777   0.002   6.159   1.740
  470LIG    HB1 1778   0.037   6.168   1.646
  470LIG    HB2 1779   0.065   6.206   1.802
  470LIG     CG 1780  -0.133   6.225   1.749
  470LIG    OD1 1781  -0.208   6.214   1.637
  470LIG    OD2 1782  -0.171   6.284   1.850
  470LIG      C 1783  -0.107   5.941   1.682
  470LIG    OT1 1784  -0.058   5.838   1.607
  470LIG    OT2 1785  -0.236   5.986   1.681
  471LIG      N 1786   4.454   1.894   0.328
  471LIG     H1 1787   4.441   1.892   0.229
  471LIG     H2 1788   4.533   1.838   0.353
  471LIG     H3 1789   4.372   1.859   0.374
  471LIG     CA 1790   4.478   2.038   0.372
  471LIG     HA 1791   4.559   2.074   0.326
  471LIG     CB 1792   4.358   2.122   0.333
  471LIG    HB1 1793   4.276   2.085   0.377
  471LIG    HB2 1794   4.346   2.119   0.234
  471LIG     CG 1795   4.378   2.264   0.377
  471LIG    OD1 1796   4.339   2.290   0.503
  471LIG    OD2 1797   4.424   2.350   0.302
  471LIG      C 1798   4.499   2.043   0.526
  471LIG    OT1 1799   4.492   1.925   0.594
  471LIG    OT2 1800   4.521   2.166   0.581
  472LIG      N 1801   2.114   1.294   8.385
  472LIG     H1 1802   2.180   1.360   8.422
  472LIG     H2 1803   2.113   1.299   8.285
  472LIG     H3 1804   2.023   1.314   8.421
  472LIG     CA 1805   2.154   1.153   8.428
  472LIG     HA 1806   2.245   1.133   8.393
  472LIG     CB 1807   2.157   1.146   8.579
  472LIG    HB1 1808   2.066   1.170   8.615
  472LIG    HB2 1809   2.223   1.212   8.614
  472LIG     CG 1810   2.194   1.009   8.624
  472LIG    OD1 1811   2.091   0.922   8.634
  472LIG    OD2 1812   2.310   0.977   8.651
  472LIG      C 1813   2.052   1.050   8.372
  472LIG    OT1 1814   1.948   1.099   8.297
  472LIG    OT2 1815   2.074   0.919   8.401
  473LIG      N 1816   8.462   1.360   0.583
  473LIG     H1 1817   8.384   1.297   0.570
  473LIG     H2 1818   8.530   1.343   0.512
  473LIG     H3 1819   8.502   1.344   0.673
  473LIG     CA 1820   8.413   1.503   0.574
  473LIG     HA 1821   8.372   1.519   0.485
  473LIG     CB 1822   8.309   1.527   0.682
  473LIG    HB1 1823   8.349   1.508   0.772
  473LIG    HB2 1824   8.232   1.465   0.667
  473LIG     CG 1825   8.260   1.668   0.677
  473LIG    OD1 1826   8.334   1.756   0.748
  473LIG    OD2 1827   8.159   1.701   0.615
  473LIG      C 1828   8.533   1.601   0.595
  473LIG    OT1 1829   8.656   1.545   0.616
  473LIG    OT2 1830   8.505   1.734   0.590
  474LIG      N 1831   9.909   6.588   1.212
  474LIG     H1 1832   9.986   6.617   1.155
  474LIG     H2 1833   9.919   6.629   1.303
  474LIG     H3 1834   9.909   6.489   1.219
  474LIG     CA 1835   9.779   6.635   1.149
  474LIG     HA 1836   9.780   6.734   1.141
  474LIG     CB 1837   9.767   6.574   1.011
  474LIG    HB1 1838   9.769   6.474   1.018
  474LIG    HB2 1839   9.844   6.604   0.955
  474LIG     CG 1840   9.639   6.617   0.946
  474LIG    OD1 1841   9.532   6.539   0.976
  474LIG    OD2 1842   9.632   6.714   0.871
  474LIG      C 1843   9.659   6.590   1.237
  474LIG    OT1 1844   9.688   6.520   1.351
  474LIG    OT2 1845   9.534   6.624   1.194
  475LIG      N 1846   4.837   0.098   1.019
  475LIG     H1 1847   4.921   0.048   0.998
  475LIG     H2 1848   4.765   0.035   1.047
  475LIG     H3 1849   4.807   0.149   0.938
  475LIG     CA 1850   4.865   0.197   1.131
  475LIG     HA 1851   4.895   0.147   1.212
  475LIG     CB 1852   4.974   0.292   1.088
  475LIG    HB1 1853   4.946   0.340   1.005
  475LIG    HB2 1854   5.057   0.240   1.068
  475LIG     CG 1855   5.004   0.391   1.195
  475LIG    OD1 1856   4.925   0.501   1.194
  475LIG    OD2 1857   5.093   0.375   1.278
  475LIG      C 1858   4.736   0.277   1.165
  475LIG    OT1 1859   4.624   0.248   1.092
  475LIG    OT2 1860   4.745   0.370   1.264
  476LIG      N 1861   4.541   1.308   3.954
  476LIG     H1 1862   4.516   1.230   4.012
  476LIG     H2 1863   4.583   1.380   4.010
  476LIG     H3 1864   4.460   1.343   3.908
  476LIG     CA 1865   4.641   1.263   3.849
  476LIG     HA 1866   4.723   1.226   3.894
  476LIG     CB 1867   4.578   1.153   3.765
  476LIG    HB1 1868   4.495   1.188   3.722
  476LIG    HB2 1869   4.555   1.076   3.823
  476LIG     CG 1870   4.674   1.107   3.659
  476LIG    OD1 1871   4.671   1.179   3.545
  476LIG    OD2 1872   4.748   1.010   3.675
  476LIG      C 1873   4.681   1.382   3.758
  476LIG    OT1 1874   4.623   1.503   3.785
  476LIG    OT2 1875   4.770   1.357   3.658
  477LIG      N 1876   1.501   9.008   4.992
  477LIG     H1 1877   1.549   9.052   4.917
  477LIG     H2 1878   1.416   9.058   5.011
  477LIG     H3 1879   1.559   9.008   5.074
  477LIG     CA 1880   1.468   8.865   4.955
  477LIG     HA 1881   1.410   8.864   4.873
  477LIG     CB 1882   1.596   8.791   4.925
  477LIG    HB1 1883   1.656   8.794   5.005
  477LIG    HB2 1884   1.644   8.835   4.849
  477LIG     CG 1885   1.568   8.649   4.889
  477LIG    OD1 1886   1.559   8.564   4.994
  477LIG    OD2 1887   1.555   8.612   4.772
  477LIG      C 1888   1.393   8.795   5.072
  477LIG    OT1 1889   1.370   8.869   5.184
  477LIG    OT2 1890   1.356   8.665   5.053
  478LIG      N 1891   5.192   1.212   1.870
  478LIG     H1 1892   5.137   1.130   1.855
  478LIG     H2 1893   5.233   1.209   1.961
  478LIG     H3 1894   5.133   1.293   1.863
  478LIG     CA 1895   5.302   1.221   1.765
  478LIG     HA 1896   5.360   1.140   1.772
  478LIG     CB 1897   5.238   1.225   1.628
  478LIG    HB1 1898   5.177   1.305   1.622
  478LIG    HB2 1899   5.185   1.142   1.613
  478LIG     CG 1900   5.344   1.235   1.522
  478LIG    OD1 1901   5.384   1.361   1.494
  478LIG    OD2 1902   5.389   1.136   1.465
  478LIG      C 1903   5.387   1.349   1.788
  478LIG    OT1 1904   5.352   1.429   1.893
  478LIG    OT2 1905   5.490   1.370   1.702
  479LIG      N 1906   8.289   8.561   2.539
  479LIG     H1 1907   8.357   8.582   2.469
  479LIG     H2 1908   8.211   8.624   2.529
  479LIG     H3 1909   8.330   8.572   2.630
  479LIG     CA 1910   8.241   8.418   2.523
  479LIG     HA 1911   8.201   8.406   2.433
  479LIG     CB 1912   8.360   8.325   2.537
  479LIG    HB1 1913   8.402   8.338   2.627
  479LIG    HB2 1914   8.427   8.345   2.466
  479LIG     CG 1915   8.316   8.182   2.523
  479LIG    OD1 1916   8.274   8.125   2.638
  479LIG    OD2 1917   8.320   8.122   2.416
  479LIG      C 1918   8.135   8.385   2.632
  479LIG    OT1 1919   8.103   8.485   2.720
  479LIG    OT2 1920   8.082   8.259   2.631
  480LIG      N 1921   0.933   8.701   7.966
  480LIG     H1 1922   0.848   8.711   7.914
  480LIG     H2 1923   1.011   8.728   7.909
  480LIG     H3 1924   0.944   8.605   7.994
  480LIG     CA 1925   0.927   8.788   8.090
  480LIG     HA 1926   0.916   8.883   8.063
  480LIG     CB 1927   0.809   8.746   8.174
  480LIG    HB1 1928   0.818   8.649   8.200
  480LIG    HB2 1929   0.725   8.757   8.122
  480LIG     CG 1930   0.801   8.829   8.299
  480LIG    OD1 1931   0.875   8.783   8.402
  480LIG    OD2 1932   0.731   8.930   8.306
  480LIG      C 1933   1.058   8.772   8.172
  480LIG    OT1 1934   1.153   8.687   8.122
  480LIG    OT2 1935   1.069   8.845   8.287
  481LIG      N 1936   6.794   7.416   0.255
  481LIG     H1 1937   6.789   7.500   0.201
  481LIG     H2 1938   6.846   7.433   0.338
  481LIG     H3 1939   6.838   7.345   0.201
  481LIG     CA 1940   6.653   7.371   0.291
  481LIG     HA 1941   6.608   7.443   0.344
  481LIG     CB 1942   6.575   7.348   0.164
  481LIG    HB1 1943   6.621   7.278   0.108
  481LIG    HB2 1944   6.570   7.432   0.111
  481LIG     CG 1945   6.436   7.302   0.196
  481LIG    OD1 1946   6.423   7.169   0.214
  481LIG    OD2 1947   6.341   7.380   0.204
  481LIG      C 1948   6.659   7.240   0.374
  481LIG    OT1 1949   6.783   7.189   0.401
  481LIG    OT2 1950   6.540   7.187   0.415
  482LIG      N 1951   9.105   5.553   3.734
  482LIG     H1 1952   9.180   5.596   3.683
  482LIG     H2 1953   9.037   5.622   3.759
  482LIG     H3 1954   9.142   5.511   3.817
  482LIG     CA 1955   9.040   5.446   3.649
  482LIG     HA 1956   9.003   5.487   3.566
  482LIG     CB 1957   9.144   5.343   3.611
  482LIG    HB1 1958   9.183   5.303   3.694
  482LIG    HB2 1959   9.217   5.387   3.559
  482LIG     CG 1960   9.083   5.235   3.528
  482LIG    OD1 1961   9.027   5.134   3.598
  482LIG    OD2 1962   9.084   5.237   3.405
  482LIG      C 1963   8.925   5.378   3.728
  482LIG    OT1 1964   8.902   5.423   3.855
  482LIG    OT2 1965   8.856   5.279   3.664
  483LIG      N 1966   8.919   2.147   5.842
  483LIG     H1 1967   8.908   2.068   5.903
  483LIG     H2 1968   8.885   2.229   5.888
  483LIG     H3 1969   8.867   2.131   5.758
  483LIG     CA 1970   9.065   2.165   5.807
  483LIG     HA 1971   9.118   2.181   5.891
  483LIG     CB 1972   9.116   2.040   5.740
  483LIG    HB1 1973   9.062   2.022   5.657
  483LIG    HB2 1974   9.106   1.962   5.802
  483LIG     CG 1975   9.260   2.055   5.703
  483LIG    OD1 1976   9.282   2.113   5.583
  483LIG    OD2 1977   9.352   2.016   5.776
  483LIG      C 1978   9.082   2.287   5.712
  483LIG    OT1 1979   8.969   2.355   5.677
  483LIG    OT2 1980   9.209   2.317   5.672
  484LIG      N 1981   6.386   2.249   9.830
  484LIG     H1 1982   6.462   2.194   9.795
  484LIG     H2 1983   6.373   2.231   9.927
  484LIG     H3 1984   6.302   2.226   9.780
  484LIG     CA 1985   6.417   2.397   9.810
  484LIG     HA 1986   6.500   2.420   9.858
  484LIG     CB 1987   6.437   2.423   9.662
  484LIG    HB1 1988   6.354   2.397   9.612
  484LIG    HB2 1989   6.513   2.368   9.628
  484LIG     CG 1990   6.466   2.568   9.638
  484LIG    OD1 1991   6.356   2.646   9.624
  484LIG    OD2 1992   6.581   2.612   9.630
  484LIG      C 1993   6.299   2.483   9.863
  484LIG    OT1 1994   6.192   2.417   9.917
  484LIG    OT2 1995   6.312   2.618   9.852
  485LIG      N 1996   0.418   8.759   4.945
  485LIG     H1 1997   0.374   8.840   4.983
  485LIG     H2 1998   0.487   8.786   4.878
  485LIG     H3 1999   0.349   8.702   4.900
  485LIG     CA 2000   0.483   8.678   5.056
  485LIG     HA 2001   0.552   8.735   5.102
  485LIG     CB 2002   0.378   8.638   5.156
  485LIG    HB1 2003   0.307   8.584   5.110
  485LIG    HB2 2004   0.335   8.720   5.195
  485LIG     CG 2005   0.438   8.558   5.267
  485LIG    OD1 2006   0.447   8.425   5.242
  485LIG    OD2 2007   0.476   8.608   5.372
  485LIG      C 2008   0.551   8.552   4.997
  485LIG    OT1 2009   0.542   8.533   4.862
  485LIG    OT2 2010   0.615   8.469   5.085
  486LIG      N 2011   3.443   8.062   7.365
  486LIG     H1 2012   3.539   8.034   7.373
  486LIG     H2 2013   3.415   8.054   7.269
  486LIG     H3 2014   3.433   8.156   7.396
  486LIG     CA 2015   3.356   7.971   7.450
  486LIG     HA 2016   3.366   7.877   7.420
  486LIG     CB 2017   3.401   7.983   7.594
  486LIG    HB1 2018   3.394   8.078   7.625
  486LIG    HB2 2019   3.496   7.954   7.602
  486LIG     CG 2020   3.317   7.896   7.683
  486LIG    OD1 2021   3.203   7.954   7.727
  486LIG    OD2 2022   3.349   7.781   7.713
  486LIG      C 2023   3.207   8.014   7.438
  486LIG    OT1 2024   3.179   8.120   7.357
  486LIG    OT2 2025   3.116   7.942   7.510
  487LIG      N 2026   4.955   8.437   9.442
  487LIG     H1 2027   5.054   8.441   9.429
  487LIG     H2 2028   4.910   8.470   9.359
  487LIG     H3 2029   4.930   8.495   9.520
  487LIG     CA 2030   4.912   8.294   9.471
  487LIG     HA 2031   4.938   8.236   9.394
  487LIG     CB 2032   4.983   8.246   9.596
  487LIG    HB1 2033   4.960   8.306   9.673
  487LIG    HB2 2034   5.081   8.249   9.582
  487LIG     CG 2035   4.942   8.106   9.628
  487LIG    OD1 2036   4.830   8.095   9.703
  487LIG    OD2 2037   5.006   8.008   9.590
  487LIG      C 2038   4.758   8.288   9.492
  487LIG    OT1 2039   4.689   8.406   9.481
  487LIG    OT2 2040   4.704   8.166   9.518
  488LIG      N 2041   8.509   1.565   7.103
  488LIG     H1 2042   8.523   1.516   7.016
  488LIG     H2 2043   8.411   1.577   7.119
  488LIG     H3 2044   8.554   1.654   7.099
  488LIG     CA 2045   8.570   1.484   7.216
  488LIG     HA 2046   8.526   1.394   7.221
  488LIG     CB 2047   8.717   1.465   7.190
  488LIG    HB1 2048   8.762   1.555   7.183
  488LIG    HB2 2049   8.730   1.416   7.104
  488LIG     CG 2050   8.781   1.387   7.301
  488LIG    OD1 2051   8.822   1.461   7.406
  488LIG    OD2 2052   8.795   1.265   7.296
  488LIG      C 2053   8.549   1.558   7.351
  488LIG    OT1 2054   8.484   1.678   7.347
  488LIG    OT2 2055   8.598   1.498   7.463
  489LIG      N 2056   1.768   3.648   1.317
  489LIG     H1 2057   1.803   3.566   1.272
  489LIG     H2 2058   1.690   3.684   1.266
  489LIG     H3 2059   1.840   3.717   1.322
  489LIG     CA 2060   1.724   3.612   1.459
  489LIG     HA 2061   1.652   3.543   1.454
  489LIG     CB 2062   1.842   3.556   1.534
  489LIG    HB1 2063   1.916   3.624   1.536
  489LIG    HB2 2064   1.876   3.474   1.488
  489LIG     CG 2065   1.803   3.521   1.674
  489LIG    OD1 2066   1.811   3.623   1.762
  489LIG    OD2 2067   1.768   3.408   1.707
  489LIG      C 2068   1.670   3.739   1.531
  489LIG    OT1 2069   1.671   3.856   1.460
  489LIG    OT2 2070   1.627   3.723   1.659
  490LIG      N 2071   2.158   1.192   9.824
  490LIG     H1 2072   2.251   1.196   9.787
  490LIG     H2 2073   2.127   1.096   9.824
  490LIG     H3 2074   2.097   1.247   9.767
  490LIG     CA 2075   2.157   1.246   9.965
  490LIG     HA 2076   2.219   1.192  10.022
  490LIG     CB 2077   2.205   1.389   9.963
  490LIG    HB1 2078   2.145   1.444   9.904
  490LIG    HB2 2079   2.298   1.393   9.927
  490LIG     CG 2080   2.204   1.447  10.101
  490LIG    OD1 2081   2.086   1.501  10.140
  490LIG    OD2 2082   2.304   1.447  10.174
  490LIG      C 2083   2.013   1.240  10.024
  490LIG    OT1 2084   1.915   1.188   9.943
  490LIG    OT2 2085   1.996   1.285  10.151
  491LIG      N 2086   1.747   5.938   1.556
  491LIG     H1 2087   1.782   6.005   1.491
  491LIG     H2 2088   1.738   5.849   1.511
  491LIG     H3 2089   1.658   5.967   1.590
  491LIG     CA 2090   1.843   5.926   1.673
  491LIG     HA 2091   1.933   5.897   1.640
  491LIG     CB 2092   1.857   6.061   1.740
  491LIG    HB1 2093   1.766   6.092   1.771
  491LIG    HB2 2094   1.892   6.127   1.674
  491LIG     CG 2095   1.950   6.053   1.857
  491LIG    OD1 2096   1.892   6.016   1.973
  491LIG    OD2 2097   2.070   6.079   1.847
  491LIG      C 2098   1.790   5.822   1.775
  491LIG    OT1 2099   1.671   5.760   1.746
  491LIG    OT2 2100   1.865   5.800   1.887
  492LIG      N 2101   1.099   2.136   1.316
  492LIG     H1 2102   1.149   2.123   1.402
  492LIG     H2 2103   1.053   2.051   1.291
  492LIG     H3 2104   1.164   2.162   1.244
  492LIG     CA 2105   0.997   2.247   1.334
  492LIG     HA 2106   0.933   2.222   1.406
  492LIG     CB 2107   1.069   2.374   1.373
  492LIG    HB1 2108   1.135   2.399   1.302
  492LIG    HB2 2109   1.117   2.360   1.459
  492LIG     CG 2110   0.971   2.487   1.390
  492LIG    OD1 2111   0.941   2.553   1.276
  492LIG    OD2 2112   0.922   2.516   1.499
  492LIG      C 2113   0.920   2.269   1.201
  492LIG    OT1 2114   0.954   2.190   1.095
  492LIG    OT2 2115   0.824   2.366   1.200
  493LIG      N 2116   0.090   9.162   6.996
  493LIG     H1 2117   0.189   9.150   6.985
  493LIG     H2 2118   0.064   9.253   6.964
  493LIG     H3 2119   0.065   9.152   7.092
  493LIG     CA 2120   0.017   9.057   6.913
  493LIG     HA 2121   0.042   9.066   6.817
  493LIG     CB 2122   0.058   8.920   6.962
  493LIG    HB1 2123   0.035   8.910   7.059
  493LIG    HB2 2124   0.156   8.908   6.950
  493LIG     CG 2125  -0.014   8.813   6.884
  493LIG    OD1 2126  -0.136   8.780   6.932
  493LIG    OD2 2127   0.036   8.760   6.785
  493LIG      C 2128  -0.137   9.075   6.929
  493LIG    OT1 2129  -0.180   9.177   7.010
  493LIG    OT2 2130  -0.217   8.988   6.861
  494LIG      N 2131   5.614   5.062   9.463
  494LIG     H1 2132   5.667   5.010   9.395
  494LIG     H2 2133   5.518   5.065   9.435
  494LIG     H3 2134   5.650   5.155   9.469
  494LIG     CA 2135   5.626   4.995   9.599
  494LIG     HA 2136   5.591   4.902   9.593
  494LIG     CB 2137   5.771   4.991   9.639
  494LIG    HB1 2138   5.808   5.084   9.642
  494LIG    HB2 2139   5.823   4.938   9.572
  494LIG     CG 2140   5.787   4.927   9.774
  494LIG    OD1 2141   5.774   5.012   9.878
  494LIG    OD2 2142   5.810   4.807   9.788
  494LIG      C 2143   5.544   5.076   9.704
  494LIG    OT1 2144   5.479   5.187   9.660
  494LIG    OT2 2145   5.545   5.028   9.832
  495LIG      N 2146   9.398   8.725   2.394
  495LIG     H1 2147   9.319   8.673   2.362
  495LIG     H2 2148   9.410   8.807   2.338
  495LIG     H3 2149   9.480   8.667   2.388
  495LIG     CA 2150   9.377   8.766   2.539
  495LIG     HA 2151   9.295   8.823   2.546
  495LIG     CB 2152   9.357   8.641   2.623
  495LIG    HB1 2153   9.438   8.582   2.615
  495LIG    HB2 2154   9.277   8.591   2.591
  495LIG     CG 2155   9.337   8.678   2.767
  495LIG    OD1 2156   9.451   8.693   2.838
  495LIG    OD2 2157   9.226   8.692   2.816
  495LIG      C 2158   9.500   8.845   2.590
  495LIG    OT1 2159   9.603   8.865   2.502
  495LIG    OT2 2160   9.496   8.889   2.719
  496LIG      N 2161   1.947   1.897   7.487
  496LIG     H1 2162   1.892   1.819   7.517
  496LIG     H2 2163   2.044   1.875   7.498
  496LIG     H3 2164   1.923   1.977   7.541
  496LIG     CA 2165   1.918   1.925   7.340
  496LIG     HA 2166   1.941   1.845   7.286
  496LIG     CB 2167   1.771   1.955   7.324
  496LIG    HB1 2168   1.746   2.035   7.381
  496LIG    HB2 2169   1.717   1.877   7.354
  496LIG     CG 2170   1.739   1.985   7.181
  496LIG    OD1 2171   1.756   2.114   7.145
  496LIG    OD2 2172   1.698   1.899   7.103
  496LIG      C 2173   2.002   2.046   7.292
  496LIG    OT1 2174   2.085   2.105   7.384
  496LIG    OT2 2175   1.988   2.084   7.162
  497LIG      N 2176   1.181   9.461   3.235
  497LIG     H1 2177   1.089   9.481   3.269
  497LIG     H2 2178   1.177   9.447   3.136
  497LIG     H3 2179   1.215   9.379   3.280
  497LIG     CA 2180   1.273   9.578   3.266
  497LIG     HA 2181   1.238   9.660   3.222
  497LIG     CB 2182   1.276   9.599   3.416
  497LIG    HB1 2183   1.308   9.516   3.462
  497LIG    HB2 2184   1.184   9.620   3.449
  497LIG     CG 2185   1.367   9.713   3.451
  497LIG    OD1 2186   1.497   9.679   3.466
  497LIG    OD2 2187   1.326   9.828   3.465
  497LIG      C 2188   1.416   9.547   3.215
  497LIG    OT1 2189   1.436   9.427   3.153
  497LIG    OT2 2190   1.511   9.643   3.235
  498LIG      N 2191   1.408   5.610   4.910
  498LIG     H1 2192   1.484   5.544   4.915
  498LIG     H2 2193   1.349   5.588   4.832
  498LIG     H3 2194   1.445   5.702   4.900
  498LIG     CA 2195   1.327   5.603   5.038
  498LIG     HA 2196   1.291   5.510   5.050
  498LIG     CB 2197   1.417   5.635   5.155
  498LIG    HB1 2198   1.456   5.727   5.144
  498LIG    HB2 2199   1.491   5.569   5.160
  498LIG     CG 2200   1.340   5.630   5.284
  498LIG    OD1 2201   1.277   5.745   5.316
  498LIG    OD2 2202   1.335   5.530   5.354
  498LIG      C 2203   1.210   5.704   5.033
  498LIG    OT1 2204   1.198   5.780   4.919
  498LIG    OT2 2205   1.127   5.710   5.141
  499LIG      N 2206   3.006   9.480   7.972
  499LIG     H1 2207   2.957   9.482   7.885
  499LIG     H2 2208   3.102   9.503   7.957
  499LIG     H3 2209   2.998   9.389   8.012
  499LIG     CA 2210   2.944   9.582   8.067
  499LIG     HA 2211   2.951   9.673   8.027
  499LIG     CB 2212   2.798   9.548   8.087
  499LIG    HB1 2213   2.790   9.455   8.125
  499LIG    HB2 2214   2.750   9.551   8.000
  499LIG     CG 2215   2.734   9.645   8.181
  499LIG    OD1 2216   2.747   9.614   8.312
  499LIG    OD2 2217   2.674   9.745   8.142
  499LIG      C 2218   3.018   9.579   8.203
  499LIG    OT1 2219   3.122   9.491   8.216
  499LIG    OT2 2220   2.975   9.665   8.299
  500LIG      N 2221   2.442   8.552   6.389
  500LIG     H1 2222   2.367   8.498   6.351
  500LIG     H2 2223   2.442   8.542   6.489
  500LIG     H3 2224   2.429   8.648   6.364
  500LIG     CA 2225   2.574   8.502   6.333
  500LIG     HA 2226   2.586   8.406   6.357
  500LIG     CB 2227   2.572   8.516   6.183
  500LIG    HB1 2228   2.557   8.612   6.158
  500LIG    HB2 2229   2.498   8.461   6.145
  500LIG     CG 2230   2.702   8.469   6.124
  500LIG    OD1 2231   2.798   8.563   6.118
  500LIG    OD2 2232   2.718   8.354   6.084
  500LIG      C 2233   2.691   8.586   6.392
  500LIG    OT1 2234   2.658   8.686   6.480
  500LIG    OT2 2235   2.817   8.554   6.351
  501LIG      N 2236   9.424   5.166   4.343
  501LIG     H1 2237   9.485   5.230   4.296
  501LIG     H2 2238   9.437   5.172   4.442
  501LIG     H3 2239   9.444   5.073   4.312
  501LIG     CA 2240   9.280   5.199   4.308
  501LIG     HA 2241   9.259   5.292   4.338
  501LIG     CB 2242   9.262   5.190   4.158
  501LIG    HB1 2243   9.285   5.097   4.127
  501LIG    HB2 2244   9.322   5.255   4.113
  501LIG     CG 2245   9.120   5.220   4.120
  501LIG    OD1 2246   9.036   5.115   4.124
  501LIG    OD2 2247   9.084   5.333   4.088
  501LIG      C 2248   9.184   5.099   4.379
  501LIG    OT1 2249   9.241   5.002   4.457
  501LIG    OT2 2250   9.050   5.116   4.358
  502LIG      N 2251   9.467   7.065   0.945
  502LIG     H1 2252   9.552   7.026   0.981
  502LIG     H2 2253   9.465   7.163   0.962
  502LIG     H3 2254   9.389   7.021   0.989
  502LIG     CA 2255   9.460   7.039   0.795
  502LIG     HA 2256   9.538   7.082   0.750
  502LIG     CB 2257   9.465   6.890   0.771
  502LIG    HB1 2258   9.388   6.846   0.818
  502LIG    HB2 2259   9.550   6.853   0.806
  502LIG     CG 2260   9.457   6.861   0.624
  502LIG    OD1 2261   9.331   6.852   0.575
  502LIG    OD2 2262   9.557   6.845   0.554
  502LIG      C 2263   9.328   7.098   0.738
  502LIG    OT1 2264   9.244   7.160   0.826
  502LIG    OT2 2265   9.307   7.083   0.604
  503LIG      N 2266   8.764   0.415   0.419
  503LIG     H1 2267   8.814   0.330   0.438
  503LIG     H2 2268   8.771   0.437   0.321
  503LIG     H3 2269   8.804   0.489   0.473
  503LIG     CA 2270   8.618   0.398   0.457
  503LIG     HA 2271   8.578   0.324   0.405
  503LIG     CB 2272   8.610   0.364   0.605
  503LIG    HB1 2273   8.653   0.437   0.659
  503LIG    HB2 2274   8.659   0.279   0.622
  503LIG     CG 2275   8.467   0.348   0.647
  503LIG    OD1 2276   8.406   0.463   0.683
  503LIG    OD2 2277   8.411   0.238   0.649
  503LIG      C 2278   8.540   0.529   0.429
  503LIG    OT1 2279   8.611   0.634   0.377
  503LIG    OT2 2280   8.407   0.530   0.459
  504LIG      N 2281   8.020   3.901   4.248
  504LIG     H1 2282   8.054   3.807   4.239
  504LIG     H2 2283   8.037   3.933   4.341
  504LIG     H3 2284   7.922   3.903   4.228
  504LIG     CA 2285   8.093   3.991   4.149
  504LIG     HA 2286   8.191   3.988   4.168
  504LIG     CB 2287   8.068   3.940   4.009
  504LIG    HB1 2288   7.970   3.939   3.990
  504LIG    HB2 2289   8.103   3.847   4.001
  504LIG     CG 2290   8.137   4.027   3.909
  504LIG    OD1 2291   8.066   4.134   3.868
  504LIG    OD2 2292   8.250   4.002   3.866
  504LIG      C 2293   8.041   4.136   4.162
  504LIG    OT1 2294   7.944   4.160   4.255
  504LIG    OT2 2295   8.097   4.230   4.080
  505LIG      N 2296   9.763   3.207   4.422
  505LIG     H1 2297   9.801   3.291   4.460
  505LIG     H2 2298   9.804   3.189   4.333
  505LIG     H3 2299   9.664   3.216   4.413
  505LIG     CA 2300   9.793   3.091   4.516
  505LIG     HA 2301   9.892   3.081   4.526
  505LIG     CB 2302   9.732   3.120   4.651
  505LIG    HB1 2303   9.633   3.132   4.642
  505LIG    HB2 2304   9.772   3.203   4.689
  505LIG     CG 2305   9.759   3.007   4.746
  505LIG    OD1 2306   9.669   2.906   4.741
  505LIG    OD2 2307   9.855   3.006   4.823
  505LIG      C 2308   9.734   2.959   4.458
  505LIG    OT1 2309   9.667   2.968   4.339
  505LIG    OT2 2310   9.753   2.846   4.531
  506LIG      N 2311   9.466   0.890   4.613
  506LIG     H1 2312   9.552   0.847   4.642
  506LIG     H2 2313   9.436   0.954   4.684
  506LIG     H3 2314   9.397   0.820   4.599
  506LIG     CA 2315   9.489   0.966   4.484
  506LIG     HA 2316   9.559   1.036   4.498
  506LIG     CB 2317   9.536   0.869   4.378
  506LIG    HB1 2318   9.468   0.797   4.365
  506LIG    HB2 2319   9.622   0.827   4.407
  506LIG     CG 2320   9.558   0.940   4.248
  506LIG    OD1 2321   9.448   0.951   4.170
  506LIG    OD2 2322   9.668   0.983   4.214
  506LIG      C 2323   9.357   1.034   4.438
  506LIG    OT1 2324   9.247   1.016   4.517
  506LIG    OT2 2325   9.361   1.106   4.322
  507LIG      N 2326   1.465   4.268   0.829
  507LIG     H1 2327   1.415   4.190   0.867
  507LIG     H2 2328   1.430   4.353   0.869
  507LIG     H3 2329   1.453   4.271   0.730
  507LIG     CA 2330   1.613   4.254   0.862
  507LIG     HA 2331   1.625   4.251   0.961
  507LIG     CB 2332   1.664   4.125   0.802
  507LIG    HB1 2333   1.649   4.126   0.702
  507LIG    HB2 2334   1.614   4.048   0.841
  507LIG     CG 2335   1.810   4.109   0.830
  507LIG    OD1 2336   1.892   4.168   0.741
  507LIG    OD2 2337   1.851   4.045   0.927
  507LIG      C 2338   1.691   4.375   0.803
  507LIG    OT1 2339   1.619   4.469   0.736
  507LIG    OT2 2340   1.826   4.377   0.824
  508LIG      N 2341   2.110   2.288   6.664
  508LIG     H1 2342   2.094   2.315   6.759
  508LIG     H2 2343   2.140   2.369   6.612
  508LIG     H3 2344   2.026   2.251   6.624
  508LIG     CA 2345   2.219   2.182   6.659
  508LIG     HA 2346   2.303   2.219   6.699
  508LIG     CB 2347   2.174   2.062   6.739
  508LIG    HB1 2348   2.088   2.027   6.701
  508LIG    HB2 2349   2.159   2.089   6.834
  508LIG     CG 2350   2.278   1.955   6.735
  508LIG    OD1 2351   2.269   1.871   6.629
  508LIG    OD2 2352   2.364   1.943   6.822
  508LIG      C 2353   2.245   2.141   6.511
  508LIG    OT1 2354   2.171   2.202   6.415
  508LIG    OT2 2355   2.341   2.046   6.490
  509LIG      N 2356   6.520   1.551   8.192
  509LIG     H1 2357   6.541   1.630   8.135
  509LIG     H2 2358   6.542   1.572   8.288
  509LIG     H3 2359   6.574   1.473   8.162
  509LIG     CA 2360   6.372   1.517   8.180
  509LIG     HA 2361   6.318   1.595   8.209
  509LIG     CB 2362   6.341   1.487   8.035
  509LIG    HB1 2363   6.398   1.410   8.004
  509LIG    HB2 2364   6.362   1.567   7.979
  509LIG     CG 2365   6.197   1.452   8.019
  509LIG    OD1 2366   6.167   1.321   8.040
  509LIG    OD2 2367   6.111   1.535   7.989
  509LIG      C 2368   6.339   1.394   8.268
  509LIG    OT1 2369   6.441   1.338   8.340
  509LIG    OT2 2370   6.209   1.351   8.268
  510LIG      N 2371   2.341   0.585   1.822
  510LIG     H1 2372   2.344   0.485   1.826
  510LIG     H2 2373   2.310   0.620   1.910
  510LIG     H3 2374   2.279   0.614   1.750
  510LIG     CA 2375   2.480   0.638   1.793
  510LIG     HA 2376   2.543   0.609   1.864
  510LIG     CB 2377   2.527   0.582   1.660
  510LIG    HB1 2378   2.463   0.609   1.588
  510LIG    HB2 2379   2.530   0.483   1.665
  510LIG     CG 2380   2.664   0.634   1.627
  510LIG    OD1 2381   2.665   0.753   1.563
  510LIG    OD2 2382   2.766   0.572   1.655
  510LIG      C 2383   2.477   0.793   1.786
  510LIG    OT1 2384   2.356   0.854   1.807
  510LIG    OT2 2385   2.595   0.857   1.760
  511LIG      N 2386   1.280   3.286   4.538
  511LIG     H1 2387   1.297   3.370   4.485
  511LIG     H2 2388   1.357   3.224   4.527
  511LIG     H3 2389   1.196   3.242   4.506
  511LIG     CA 2390   1.265   3.322   4.685
  511LIG     HA 2391   1.348   3.366   4.717
  511LIG     CB 2392   1.149   3.418   4.701
  511LIG    HB1 2393   1.065   3.375   4.666
  511LIG    HB2 2394   1.166   3.501   4.648
  511LIG     CG 2395   1.130   3.454   4.845
  511LIG    OD1 2396   1.052   3.368   4.915
  511LIG    OD2 2397   1.180   3.554   4.895
  511LIG      C 2398   1.239   3.193   4.768
  511LIG    OT1 2399   1.234   3.075   4.700
  511LIG    OT2 2400   1.223   3.209   4.903
  512LIG      N 2401   3.367   1.643   3.061
  512LIG     H1 2402   3.420   1.560   3.079
  512LIG     H2 2403   3.326   1.676   3.146
  512LIG     H3 2404   3.295   1.623   2.995
  512LIG     CA 2405   3.459   1.750   3.004
  512LIG     HA 2406   3.531   1.770   3.069
  512LIG     CB 2407   3.521   1.698   2.876
  512LIG    HB1 2408   3.448   1.675   2.810
  512LIG    HB2 2409   3.574   1.616   2.895
  512LIG     CG 2410   3.611   1.802   2.816
  512LIG    OD1 2411   3.549   1.891   2.735
  512LIG    OD2 2412   3.732   1.805   2.838
  512LIG      C 2413   3.378   1.879   2.975
  512LIG    OT1 2414   3.244   1.877   3.003
  512LIG    OT2 2415   3.446   1.985   2.923
  513LIG      N 2416   5.821   8.997   4.982
  513LIG     H1 2417   5.747   9.058   5.013
  513LIG     H2 2418   5.824   8.997   4.882
  513LIG     H3 2419   5.803   8.904   5.015
  513LIG     CA 2420   5.954   9.046   5.037
  513LIG     HA 2421   5.971   9.138   5.005
  513LIG     CB 2422   5.947   9.046   5.188
  513LIG    HB1 2423   5.926   8.953   5.221
  513LIG    HB2 2424   5.874   9.107   5.218
  513LIG     CG 2425   6.077   9.092   5.247
  513LIG    OD1 2426   6.169   8.995   5.264
  513LIG    OD2 2427   6.097   9.209   5.277
  513LIG      C 2428   6.068   8.952   4.990
  513LIG    OT1 2429   6.034   8.846   4.910
  513LIG    OT2 2430   6.194   8.982   5.032
  514LIG      N 2431   6.581   8.989   0.408
  514LIG     H1 2432   6.626   8.908   0.372
  514LIG     H2 2433   6.602   8.999   0.506
  514LIG     H3 2434   6.482   8.980   0.396
  514LIG     CA 2435   6.629   9.112   0.333
  514LIG     HA 2436   6.728   9.121   0.344
  514LIG     CB 2437   6.597   9.096   0.186
  514LIG    HB1 2438   6.498   9.084   0.174
  514LIG    HB2 2439   6.644   9.015   0.151
  514LIG     CG 2440   6.642   9.216   0.109
  514LIG    OD1 2441   6.552   9.317   0.104
  514LIG    OD2 2442   6.752   9.222   0.054
  514LIG      C 2443   6.559   9.239   0.388
  514LIG    OT1 2444   6.469   9.221   0.490
  514LIG    OT2 2445   6.591   9.358   0.331
  515LIG      N 2446   8.326   4.443   6.578
  515LIG     H1 2447   8.385   4.456   6.657
  515LIG     H2 2448   8.264   4.366   6.594
  515LIG     H3 2449   8.382   4.425   6.497
  515LIG     CA 2450   8.244   4.569   6.554
  515LIG     HA 2451   8.188   4.588   6.634
  515LIG     CB 2452   8.338   4.685   6.531
  515LIG    HB1 2453   8.396   4.666   6.452
  515LIG    HB2 2454   8.395   4.698   6.611
  515LIG     CG 2455   8.260   4.811   6.506
  515LIG    OD1 2456   8.225   4.830   6.377
  515LIG    OD2 2457   8.233   4.890   6.595
  515LIG      C 2458   8.152   4.550   6.430
  515LIG    OT1 2459   8.159   4.430   6.365
  515LIG    OT2 2460   8.072   4.654   6.396
  516LIG      N 2461   8.159   3.827   1.503
  516LIG     H1 2462   8.235   3.824   1.568
  516LIG     H2 2463   8.190   3.796   1.413
  516LIG     H3 2464   8.124   3.921   1.497
  516LIG     CA 2465   8.047   3.736   1.552
  516LIG     HA 2466   8.081   3.643   1.559
  516LIG     CB 2467   8.001   3.783   1.688
  516LIG    HB1 2468   7.970   3.878   1.682
  516LIG    HB2 2469   8.078   3.779   1.752
  516LIG     CG 2470   7.890   3.697   1.739
  516LIG    OD1 2471   7.767   3.734   1.699
  516LIG    OD2 2472   7.910   3.600   1.812
  516LIG      C 2473   7.928   3.741   1.452
  516LIG    OT1 2474   7.941   3.821   1.342
  516LIG    OT2 2475   7.819   3.664   1.482
  517LIG      N 2476   8.542   7.136   4.685
  517LIG     H1 2477   8.607   7.077   4.732
  517LIG     H2 2478   8.553   7.125   4.586
  517LIG     H3 2479   8.558   7.232   4.710
  517LIG     CA 2480   8.400   7.098   4.724
  517LIG     HA 2481   8.384   7.003   4.700
  517LIG     CB 2482   8.385   7.114   4.874
  517LIG    HB1 2483   8.405   7.210   4.900
  517LIG    HB2 2484   8.450   7.055   4.921
  517LIG     CG 2485   8.246   7.079   4.917
  517LIG    OD1 2486   8.157   7.180   4.909
  517LIG    OD2 2487   8.216   6.966   4.956
  517LIG      C 2488   8.298   7.189   4.651
  517LIG    OT1 2489   8.349   7.284   4.566
  517LIG    OT2 2490   8.166   7.167   4.676
  518LIG      N 2491   3.796   9.530   9.092
  518LIG     H1 2492   3.757   9.613   9.130
  518LIG     H2 2493   3.776   9.525   8.994
  518LIG     H3 2494   3.757   9.450   9.138
  518LIG     CA 2495   3.947   9.531   9.112
  518LIG     HA 2496   3.986   9.610   9.067
  518LIG     CB 2497   3.976   9.539   9.260
  518LIG    HB1 2498   3.935   9.460   9.307
  518LIG    HB2 2499   3.937   9.622   9.298
  518LIG     CG 2500   4.124   9.538   9.285
  518LIG    OD1 2501   4.180   9.415   9.293
  518LIG    OD2 2502   4.189   9.642   9.297
  518LIG      C 2503   4.009   9.401   9.053
  518LIG    OT1 2504   3.924   9.312   8.995
  518LIG    OT2 2505   4.144   9.387   9.064
  519LIG      N 2506   2.606   1.868   8.673
  519LIG     H1 2507   2.634   1.789   8.728
  519LIG     H2 2508   2.613   1.951   8.728
  519LIG     H3 2509   2.512   1.855   8.642
  519LIG     CA 2510   2.697   1.879   8.551
  519LIG     HA 2511   2.791   1.891   8.581
  519LIG     CB 2512   2.686   1.752   8.471
  519LIG    HB1 2513   2.591   1.738   8.442
  519LIG    HB2 2514   2.715   1.674   8.526
  519LIG     CG 2515   2.773   1.760   8.349
  519LIG    OD1 2516   2.715   1.818   8.241
  519LIG    OD2 2517   2.888   1.715   8.347
  519LIG      C 2518   2.654   2.001   8.465
  519LIG    OT1 2519   2.548   2.075   8.508
  519LIG    OT2 2520   2.726   2.024   8.351
  520LIG      N 2521   9.169   7.582   2.138
  520LIG     H1 2522   9.207   7.516   2.203
  520LIG     H2 2523   9.158   7.538   2.049
  520LIG     H3 2524   9.231   7.660   2.129
  520LIG     CA 2525   9.034   7.630   2.188
  520LIG     HA 2526   8.972   7.553   2.198
  520LIG     CB 2527   9.053   7.696   2.323
  520LIG    HB1 2528   9.117   7.772   2.315
  520LIG    HB2 2529   9.090   7.629   2.388
  520LIG     CG 2530   8.922   7.746   2.375
  520LIG    OD1 2531   8.889   7.871   2.334
  520LIG    OD2 2532   8.850   7.680   2.451
  520LIG      C 2533   8.974   7.733   2.088
  520LIG    OT1 2534   9.048   7.762   1.976
  520LIG    OT2 2535   8.853   7.786   2.119
  521LIG      N 2536   7.240   8.301   9.637
  521LIG     H1 2537   7.244   8.208   9.673
  521LIG     H2 2538   7.259   8.299   9.538
  521LIG     H3 2539   7.307   8.359   9.683
  521LIG     CA 2540   7.101   8.359   9.659
  521LIG     HA 2541   7.033   8.302   9.614
  521LIG     CB 2542   7.072   8.360   9.808
  521LIG    HB1 2543   7.141   8.415   9.855
  521LIG    HB2 2544   7.076   8.267   9.843
  521LIG     CG 2545   6.936   8.417   9.835
  521LIG    OD1 2546   6.933   8.552   9.846
  521LIG    OD2 2547   6.836   8.347   9.846
  521LIG      C 2548   7.094   8.503   9.603
  521LIG    OT1 2549   7.207   8.554   9.545
  521LIG    OT2 2550   6.975   8.569   9.616
  522LIG      N 2551   5.800   3.587   0.361
  522LIG     H1 2552   5.810   3.656   0.289
  522LIG     H2 2553   5.777   3.632   0.447
  522LIG     H3 2554   5.887   3.538   0.371
  522LIG     CA 2555   5.691   3.489   0.323
  522LIG     HA 2556   5.605   3.538   0.312
  522LIG     CB 2557   5.728   3.422   0.192
  522LIG    HB1 2558   5.816   3.375   0.202
  522LIG    HB2 2559   5.736   3.491   0.121
  522LIG     CG 2560   5.622   3.323   0.153
  522LIG    OD1 2561   5.638   3.200   0.205
  522LIG    OD2 2562   5.530   3.352   0.077
  522LIG      C 2563   5.675   3.381   0.434
  522LIG    OT1 2564   5.758   3.392   0.543
  522LIG    OT2 2565   5.581   3.285   0.415
  523LIG      N 2566   2.087   5.614   9.607
  523LIG     H1 2567   2.005   5.611   9.664
  523LIG     H2 2568   2.103   5.523   9.568
  523LIG     H3 2569   2.166   5.641   9.662
  523LIG     CA 2570   2.068   5.715   9.495
  523LIG     HA 2571   1.989   5.688   9.440
  523LIG     CB 2572   2.043   5.851   9.556
  523LIG    HB1 2573   2.121   5.877   9.613
  523LIG    HB2 2574   1.960   5.848   9.612
  523LIG     CG 2575   2.025   5.953   9.448
  523LIG    OD1 2576   2.139   6.009   9.403
  523LIG    OD2 2577   1.914   5.985   9.405
  523LIG      C 2578   2.194   5.719   9.405
  523LIG    OT1 2579   2.298   5.636   9.439
  523LIG    OT2 2580   2.193   5.805   9.300
  524LIG      N 2581   8.646   3.019   9.948
  524LIG     H1 2582   8.645   3.119   9.957
  524LIG     H2 2583   8.619   2.977  10.034
  524LIG     H3 2584   8.739   2.990   9.923
  524LIG     CA 2585   8.550   2.977   9.838
  524LIG     HA 2586   8.457   3.007   9.862
  524LIG     CB 2587   8.591   3.043   9.709
  524LIG    HB1 2588   8.684   3.016   9.685
  524LIG    HB2 2589   8.588   3.142   9.719
  524LIG     CG 2590   8.498   3.003   9.598
  524LIG    OD1 2591   8.532   2.888   9.535
  524LIG    OD2 2592   8.400   3.070   9.566
  524LIG      C 2593   8.552   2.823   9.822
  524LIG    OT1 2594   8.635   2.752   9.904
  524LIG    OT2 2595   8.470   2.769   9.727
  525LIG      N 2596   4.568   8.117   6.887
  525LIG     H1 2597   4.562   8.202   6.940
  525LIG     H2 2598   4.642   8.125   6.820
  525LIG     H3 2599   4.481   8.102   6.839
  525LIG     CA 2600   4.595   8.000   6.980
  525LIG     HA 2601   4.681   8.016   7.028
  525LIG     CB 2602   4.483   7.992   7.081
  525LIG    HB1 2603   4.395   7.979   7.033
  525LIG    HB2 2604   4.478   8.076   7.134
  525LIG     CG 2605   4.505   7.876   7.174
  525LIG    OD1 2606   4.458   7.758   7.130
  525LIG    OD2 2607   4.562   7.889   7.283
  525LIG      C 2608   4.603   7.869   6.899
  525LIG    OT1 2609   4.586   7.877   6.763
  525LIG    OT2 2610   4.627   7.754   6.969
  526LIG      N 2611   5.937   8.735   8.254
  526LIG     H1 2612   6.000   8.658   8.263
  526LIG     H2 2613   5.876   8.738   8.333
  526LIG     H3 2614   5.884   8.724   8.170
  526LIG     CA 2615   6.016   8.865   8.246
  526LIG     HA 2616   6.070   8.876   8.329
  526LIG     CB 2617   6.109   8.859   8.127
  526LIG    HB1 2618   6.055   8.845   8.043
  526LIG    HB2 2619   6.172   8.783   8.138
  526LIG     CG 2620   6.187   8.986   8.116
  526LIG    OD1 2621   6.126   9.085   8.047
  526LIG    OD2 2622   6.300   8.999   8.164
  526LIG      C 2623   5.919   8.985   8.232
  526LIG    OT1 2624   5.785   8.957   8.228
  526LIG    OT2 2625   5.975   9.109   8.224
  527LIG      N 2626   1.620   0.281   8.279
  527LIG     H1 2627   1.612   0.373   8.318
  527LIG     H2 2628   1.647   0.288   8.183
  527LIG     H3 2629   1.531   0.235   8.286
  527LIG     CA 2630   1.724   0.201   8.356
  527LIG     HA 2631   1.812   0.247   8.350
  527LIG     CB 2632   1.682   0.193   8.501
  527LIG    HB1 2633   1.592   0.149   8.507
  527LIG    HB2 2634   1.676   0.285   8.539
  527LIG     CG 2635   1.781   0.114   8.580
  527LIG    OD1 2636   1.761  -0.019   8.580
  527LIG    OD2 2637   1.874   0.167   8.641
  527LIG      C 2638   1.736   0.058   8.296
  527LIG    OT1 2639   1.655   0.028   8.190
  527LIG    OT2 2640   1.825  -0.026   8.355
  528LIG      N 2641   4.924   0.757   9.590
  528LIG     H1 2642   4.859   0.832   9.600
  528LIG     H2 2643   4.942   0.742   9.492
  528LIG     H3 2644   4.885   0.674   9.630
  528LIG     CA 2645   5.054   0.791   9.661
  528LIG     HA 2646   5.092   0.874   9.622
  528LIG     CB 2647   5.024   0.814   9.807
  528LIG    HB1 2648   4.982   0.732   9.847
  528LIG    HB2 2649   4.960   0.890   9.817
  528LIG     CG 2650   5.150   0.847   9.882
  528LIG    OD1 2651   5.219   0.740   9.926
  528LIG    OD2 2652   5.187   0.963   9.902
  528LIG      C 2653   5.155   0.674   9.646
  528LIG    OT1 2654   5.114   0.565   9.574
  528LIG    OT2 2655   5.277   0.690   9.705
  529LIG      N 2656   8.284   9.497   7.085
  529LIG     H1 2657   8.230   9.552   7.150
  529LIG     H2 2658   8.311   9.554   7.008
  529LIG     H3 2659   8.228   9.421   7.052
  529LIG     CA 2660   8.408   9.442   7.154
  529LIG     HA 2661   8.463   9.518   7.188
  529LIG     CB 2662   8.364   9.357   7.272
  529LIG    HB1 2663   8.306   9.282   7.239
  529LIG    HB2 2664   8.312   9.413   7.336
  529LIG     CG 2665   8.484   9.300   7.342
  529LIG    OD1 2666   8.530   9.184   7.290
  529LIG    OD2 2667   8.535   9.355   7.439
  529LIG      C 2668   8.491   9.357   7.055
  529LIG    OT1 2669   8.443   9.345   6.927
  529LIG    OT2 2670   8.606   9.301   7.102
  530LIG      N 2671   8.602   3.695   0.597
  530LIG     H1 2672   8.634   3.606   0.628
  530LIG     H2 2673   8.621   3.764   0.668
  530LIG     H3 2674   8.504   3.692   0.579
  530LIG     CA 2675   8.676   3.734   0.470
  530LIG     HA 2676   8.774   3.737   0.488
  530LIG     CB 2677   8.648   3.629   0.364
  530LIG    HB1 2678   8.549   3.623   0.348
  530LIG    HB2 2679   8.681   3.540   0.396
  530LIG     CG 2680   8.718   3.664   0.236
  530LIG    OD1 2681   8.649   3.746   0.155
  530LIG    OD2 2682   8.829   3.620   0.208
  530LIG      C 2683   8.627   3.872   0.420
  530LIG    OT1 2684   8.532   3.936   0.495
  530LIG    OT2 2685   8.684   3.921   0.306
  531LIG      N 2686   7.881   7.154   9.031
  531LIG     H1 2687   7.902   7.155   8.933
  531LIG     H2 2688   7.787   7.124   9.045
  531LIG     H3 2689   7.893   7.246   9.069
  531LIG     CA 2690   7.976   7.059   9.103
  531LIG     HA 2691   7.965   6.967   9.065
  531LIG     CB 2692   8.118   7.105   9.080
  531LIG    HB1 2693   8.129   7.199   9.115
  531LIG    HB2 2694   8.138   7.105   8.982
  531LIG     CG 2695   8.214   7.014   9.150
  531LIG    OD1 2696   8.238   7.046   9.279
  531LIG    OD2 2697   8.268   6.919   9.094
  531LIG      C 2698   7.944   7.057   9.255
  531LIG    OT1 2699   7.842   7.137   9.298
  531LIG    OT2 2700   8.021   6.976   9.333
  532LIG      N 2701   1.053   2.018   0.546
  532LIG     H1 2702   0.985   2.081   0.583
  532LIG     H2 2703   1.069   2.038   0.450
  532LIG     H3 2704   1.019   1.924   0.556
  532LIG     CA 2705   1.183   2.032   0.624
  532LIG     HA 2706   1.216   2.126   0.615
  532LIG     CB 2707   1.157   2.003   0.770
  532LIG    HB1 2708   1.120   1.910   0.779
  532LIG    HB2 2709   1.089   2.067   0.805
  532LIG     CG 2710   1.283   2.015   0.849
  532LIG    OD1 2711   1.359   1.903   0.853
  532LIG    OD2 2712   1.315   2.119   0.907
  532LIG      C 2713   1.289   1.934   0.568
  532LIG    OT1 2714   1.251   1.853   0.464
  532LIG    OT2 2715   1.412   1.935   0.627
  533LIG      N 2716   0.799   1.567   4.839
  533LIG     H1 2717   0.858   1.642   4.808
  533LIG     H2 2718   0.799   1.564   4.939
  533LIG     H3 2719   0.833   1.480   4.803
  533LIG     CA 2720   0.658   1.591   4.789
  533LIG     HA 2721   0.624   1.677   4.824
  533LIG     CB 2722   0.660   1.596   4.638
  533LIG    HB1 2723   0.696   1.510   4.601
  533LIG    HB2 2724   0.718   1.671   4.608
  533LIG     CG 2725   0.522   1.618   4.584
  533LIG    OD1 2726   0.450   1.505   4.566
  533LIG    OD2 2727   0.478   1.730   4.558
  533LIG      C 2728   0.565   1.475   4.836
  533LIG    OT1 2729   0.622   1.376   4.911
  533LIG    OT2 2730   0.434   1.482   4.799
  534LIG      N 2731   8.179   5.698   4.986
  534LIG     H1 2732   8.126   5.733   5.064
  534LIG     H2 2733   8.155   5.750   4.904
  534LIG     H3 2734   8.158   5.601   4.973
  534LIG     CA 2735   8.327   5.715   5.015
  534LIG     HA 2736   8.348   5.811   5.029
  534LIG     CB 2737   8.362   5.638   5.140
  534LIG    HB1 2738   8.339   5.541   5.128
  534LIG    HB2 2739   8.309   5.673   5.217
  534LIG     CG 2740   8.508   5.650   5.171
  534LIG    OD1 2741   8.587   5.560   5.109
  534LIG    OD2 2742   8.552   5.736   5.247
  534LIG      C 2743   8.410   5.661   4.895
  534LIG    OT1 2744   8.341   5.610   4.789
  534LIG    OT2 2745   8.546   5.668   4.906
  535LIG      N 2746   6.668   1.659   3.863
  535LIG     H1 2747   6.709   1.697   3.780
  535LIG     H2 2748   6.569   1.651   3.852
  535LIG     H3 2749   6.688   1.720   3.940
  535LIG     CA 2750   6.728   1.522   3.891
  535LIG     HA 2751   6.708   1.461   3.814
  535LIG     CB 2752   6.877   1.536   3.907
  535LIG    HB1 2753   6.898   1.599   3.982
  535LIG    HB2 2754   6.917   1.572   3.823
  535LIG     CG 2755   6.939   1.402   3.936
  535LIG    OD1 2756   6.941   1.368   4.066
  535LIG    OD2 2757   6.986   1.331   3.847
  535LIG      C 2758   6.666   1.463   4.021
  535LIG    OT1 2759   6.573   1.539   4.086
  535LIG    OT2 2760   6.709   1.339   4.059
  536LIG      N 2761   7.975   5.297   2.630
  536LIG     H1 2762   7.952   5.314   2.534
  536LIG     H2 2763   8.060   5.244   2.635
  536LIG     H3 2764   7.901   5.246   2.673
  536LIG     CA 2765   7.994   5.429   2.702
  536LIG     HA 2766   8.067   5.481   2.658
  536LIG     CB 2767   7.866   5.509   2.692
  536LIG    HB1 2768   7.790   5.457   2.733
  536LIG    HB2 2769   7.844   5.526   2.596
  536LIG     CG 2770   7.879   5.640   2.763
  536LIG    OD1 2771   7.852   5.635   2.896
  536LIG    OD2 2772   7.912   5.743   2.706
  536LIG      C 2773   8.029   5.404   2.851
  536LIG    OT1 2774   8.038   5.274   2.892
  536LIG    OT2 2775   8.049   5.514   2.929
  537LIG      N 2776   0.077   7.748   7.169
  537LIG     H1 2777   0.044   7.658   7.196
  537LIG     H2 2778   0.134   7.738   7.087
  537LIG     H3 2779   0.132   7.787   7.243
  537LIG     CA 2780  -0.040   7.839   7.139
  537LIG     HA 2781  -0.095   7.800   7.066
  537LIG     CB 2782  -0.126   7.851   7.263
  537LIG    HB1 2783  -0.071   7.888   7.339
  537LIG    HB2 2784  -0.160   7.761   7.290
  537LIG     CG 2785  -0.242   7.942   7.239
  537LIG    OD1 2786  -0.217   8.073   7.259
  537LIG    OD2 2787  -0.352   7.900   7.203
  537LIG      C 2788   0.011   7.979   7.097
  537LIG    OT1 2789   0.147   7.998   7.093
  537LIG    OT2 2790  -0.083   8.073   7.067
  538LIG      N 2791   4.766   9.979   6.185
  538LIG     H1 2792   4.717   9.892   6.195
  538LIG     H2 2793   4.836   9.986   6.256
  538LIG     H3 2794   4.701  10.055   6.193
  538LIG     CA 2795   4.832   9.984   6.048
  538LIG     HA 2796   4.896   9.908   6.039
  538LIG     CB 2797   4.725   9.971   5.942
  538LIG    HB1 2798   4.659  10.046   5.952
  538LIG    HB2 2799   4.677   9.884   5.952
  538LIG     CG 2800   4.786   9.978   5.805
  538LIG    OD1 2801   4.803  10.103   5.756
  538LIG    OD2 2802   4.818   9.877   5.742
  538LIG      C 2803   4.908  10.118   6.031
  538LIG    OT1 2804   4.904  10.206   6.136
  538LIG    OT2 2805   4.973  10.138   5.913
  539LIG      N 2806   8.550   5.750   9.075
  539LIG     H1 2807   8.645   5.780   9.084
  539LIG     H2 2808   8.538   5.701   8.988
  539LIG     H3 2809   8.489   5.830   9.078
  539LIG     CA 2810   8.515   5.657   9.191
  539LIG     HA 2811   8.575   5.578   9.189
  539LIG     CB 2812   8.534   5.732   9.321
  539LIG    HB1 2813   8.476   5.814   9.322
  539LIG    HB2 2814   8.629   5.760   9.329
  539LIG     CG 2815   8.499   5.644   9.437
  539LIG    OD1 2816   8.368   5.645   9.471
  539LIG    OD2 2817   8.583   5.578   9.497
  539LIG      C 2818   8.367   5.611   9.178
  539LIG    OT1 2819   8.295   5.658   9.071
  539LIG    OT2 2820   8.320   5.527   9.275
  540LIG      N 2821   1.778   2.746   2.992
  540LIG     H1 2822   1.768   2.845   3.004
  540LIG     H2 2823   1.789   2.702   3.081
  540LIG     H3 2824   1.857   2.726   2.934
  540LIG     CA 2825   1.652   2.691   2.925
  540LIG     HA 2826   1.573   2.711   2.982
  540LIG     CB 2827   1.635   2.759   2.791
  540LIG    HB1 2828   1.716   2.742   2.734
  540LIG    HB2 2829   1.625   2.857   2.804
  540LIG     CG 2830   1.513   2.707   2.721
  540LIG    OD1 2831   1.534   2.595   2.648
  540LIG    OD2 2832   1.404   2.762   2.730
  540LIG      C 2833   1.666   2.538   2.905
  540LIG    OT1 2834   1.781   2.479   2.949
  540LIG    OT2 2835   1.561   2.473   2.846
  541LIG      N 2836   8.771   1.215   0.247
  541LIG     H1 2837   8.690   1.206   0.189
  541LIG     H2 2838   8.748   1.265   0.330
  541LIG     H3 2839   8.843   1.264   0.197
  541LIG     CA 2840   8.822   1.076   0.284
  541LIG     HA 2841   8.751   1.027   0.333
  541LIG     CB 2842   8.855   1.001   0.157
  541LIG    HB1 2843   8.925   1.052   0.105
  541LIG    HB2 2844   8.774   0.992   0.100
  541LIG     CG 2845   8.907   0.864   0.189
  541LIG    OD1 2846   9.040   0.858   0.213
  541LIG    OD2 2847   8.835   0.765   0.192
  541LIG      C 2848   8.949   1.088   0.373
  541LIG    OT1 2849   8.992   1.214   0.403
  541LIG    OT2 2850   9.006   0.972   0.414
  542LIG      N 2851   9.979   5.359   2.280
  542LIG     H1 2852  10.028   5.408   2.208
  542LIG     H2 2853  10.043   5.303   2.332
  542LIG     H3 2854   9.909   5.300   2.238
  542LIG     CA 2855   9.911   5.458   2.373
  542LIG     HA 2856   9.980   5.517   2.414
  542LIG     CB 2857   9.816   5.543   2.292
  542LIG    HB1 2858   9.747   5.484   2.248
  542LIG    HB2 2859   9.865   5.593   2.222
  542LIG     CG 2860   9.746   5.641   2.381
  542LIG    OD1 2861   9.634   5.594   2.441
  542LIG    OD2 2862   9.787   5.756   2.397
  542LIG      C 2863   9.834   5.382   2.484
  542LIG    OT1 2864   9.839   5.246   2.481
  542LIG    OT2 2865   9.768   5.458   2.576
  543LIG      N 2866   1.162   2.382   5.666
  543LIG     H1 2867   1.254   2.343   5.655
  543LIG     H2 2868   1.114   2.380   5.578
  543LIG     H3 2869   1.169   2.476   5.699
  543LIG     CA 2870   1.084   2.299   5.767
  543LIG     HA 2871   1.078   2.204   5.735
  543LIG     CB 2872   1.158   2.300   5.899
  543LIG    HB1 2873   1.168   2.395   5.931
  543LIG    HB2 2874   1.249   2.261   5.887
  543LIG     CG 2875   1.084   2.221   6.002
  543LIG    OD1 2876   0.989   2.289   6.068
  543LIG    OD2 2877   1.109   2.102   6.024
  543LIG      C 2878   0.942   2.357   5.786
  543LIG    OT1 2879   0.910   2.468   5.712
  543LIG    OT2 2880   0.859   2.293   5.873
  544LIG      N 2881   8.007   2.972  10.027
  544LIG     H1 2882   7.981   3.023   9.945
  544LIG     H2 2883   7.958   3.008  10.106
  544LIG     H3 2884   8.105   2.979  10.042
  544LIG     CA 2885   7.971   2.825  10.008
  544LIG     HA 2886   7.872   2.817   9.992
  544LIG     CB 2887   8.044   2.772   9.887
  544LIG    HB1 2888   8.143   2.782   9.901
  544LIG    HB2 2889   8.018   2.823   9.806
  544LIG     CG 2890   8.012   2.627   9.866
  544LIG    OD1 2891   8.090   2.541   9.936
  544LIG    OD2 2892   7.923   2.590   9.790
  544LIG      C 2893   8.010   2.744  10.134
  544LIG    OT1 2894   8.068   2.813  10.237
  544LIG    OT2 2895   7.984   2.610  10.133
  545LIG      N 2896   5.727   8.715   1.508
  545LIG     H1 2897   5.731   8.680   1.602
  545LIG     H2 2898   5.713   8.638   1.445
  545LIG     H3 2899   5.813   8.761   1.486
  545LIG     CA 2900   5.612   8.814   1.495
  545LIG     HA 2901   5.527   8.768   1.517
  545LIG     CB 2902   5.635   8.928   1.591
  545LIG    HB1 2903   5.722   8.973   1.571
  545LIG    HB2 2904   5.637   8.893   1.685
  545LIG     CG 2905   5.524   9.028   1.580
  545LIG    OD1 2906   5.542   9.122   1.485
  545LIG    OD2 2907   5.425   9.026   1.653
  545LIG      C 2908   5.606   8.868   1.349
  545LIG    OT1 2909   5.699   8.821   1.261
  545LIG    OT2 2910   5.508   8.958   1.321
  546LIG      N 2911   9.670   9.334   4.556
  546LIG     H1 2912   9.662   9.414   4.495
  546LIG     H2 2913   9.621   9.257   4.517
  546LIG     H3 2914   9.632   9.357   4.646
  546LIG     CA 2915   9.817   9.298   4.573
  546LIG     HA 2916   9.856   9.276   4.484
  546LIG     CB 2917   9.891   9.416   4.631
  546LIG    HB1 2918   9.850   9.441   4.720
  546LIG    HB2 2919   9.883   9.494   4.570
  546LIG     CG 2920  10.036   9.383   4.650
  546LIG    OD1 2921  10.065   9.323   4.768
  546LIG    OD2 2922  10.121   9.410   4.566
  546LIG      C 2923   9.831   9.175   4.667
  546LIG    OT1 2924   9.715   9.122   4.718
  546LIG    OT2 2925   9.957   9.130   4.692
  547LIG      N 2926   2.045   2.829   2.780
  547LIG     H1 2927   1.999   2.914   2.806
  547LIG     H2 2928   2.052   2.824   2.680
  547LIG     H3 2929   1.991   2.751   2.814
  547LIG     CA 2930   2.184   2.825   2.841
  547LIG     HA 2931   2.237   2.902   2.808
  547LIG     CB 2932   2.171   2.833   2.991
  547LIG    HB1 2933   2.116   2.757   3.025
  547LIG    HB2 2934   2.127   2.919   3.017
  547LIG     CG 2935   2.306   2.828   3.055
  547LIG    OD1 2936   2.353   2.703   3.079
  547LIG    OD2 2937   2.370   2.929   3.085
  547LIG      C 2938   2.255   2.692   2.801
  547LIG    OT1 2939   2.185   2.605   2.722
  547LIG    OT2 2940   2.381   2.674   2.849
  548LIG      N 2941   9.566   4.091   7.487
  548LIG     H1 2942   9.507   4.152   7.433
  548LIG     H2 2943   9.512   4.044   7.556
  548LIG     H3 2944   9.638   4.145   7.531
  548LIG     CA 2945   9.631   3.989   7.395
  548LIG     HA 2946   9.560   3.935   7.350
  548LIG     CB 2947   9.711   4.062   7.290
  548LIG    HB1 2948   9.782   4.118   7.334
  548LIG    HB2 2949   9.652   4.121   7.236
  548LIG     CG 2950   9.778   3.964   7.197
  548LIG    OD1 2951   9.898   3.918   7.240
  548LIG    OD2 2952   9.727   3.929   7.091
  548LIG      C 2953   9.723   3.894   7.476
  548LIG    OT1 2954   9.732   3.917   7.611
  548LIG    OT2 2955   9.789   3.797   7.407
  549LIG      N 2956   0.731   4.155   3.044
  549LIG     H1 2957   0.671   4.225   3.084
  549LIG     H2 2958   0.769   4.098   3.117
  549LIG     H3 2959   0.805   4.199   2.994
  549LIG     CA 2960   0.650   4.068   2.949
  549LIG     HA 2961   0.575   4.025   2.999
  549LIG     CB 2962   0.592   4.156   2.841
  549LIG    HB1 2963   0.666   4.202   2.791
  549LIG    HB2 2964   0.532   4.225   2.881
  549LIG     CG 2965   0.513   4.073   2.744
  549LIG    OD1 2966   0.585   4.019   2.644
  549LIG    OD2 2967   0.391   4.058   2.754
  549LIG      C 2968   0.741   3.959   2.886
  549LIG    OT1 2969   0.873   3.959   2.925
  549LIG    OT2 2970   0.683   3.873   2.798
  550LIG      N 2971   4.840   5.220   0.791
  550LIG     H1 2972   4.810   5.180   0.877
  550LIG     H2 2973   4.901   5.157   0.743
  550LIG     H3 2974   4.888   5.306   0.809
  550LIG     CA 2975   4.718   5.249   0.704
  550LIG     HA 2976   4.669   5.164   0.686
  550LIG     CB 2977   4.627   5.344   0.778
  550LIG    HB1 2978   4.677   5.429   0.799
  550LIG    HB2 2979   4.597   5.303   0.864
  550LIG     CG 2980   4.507   5.376   0.695
  550LIG    OD1 2981   4.523   5.479   0.609
  550LIG    OD2 2982   4.401   5.314   0.705
  550LIG      C 2983   4.763   5.313   0.570
  550LIG    OT1 2984   4.898   5.332   0.551
  550LIG    OT2 2985   4.665   5.345   0.481
  551LIG      N 2986   7.405  -0.001   7.950
  551LIG     H1 2987   7.363   0.047   7.873
  551LIG     H2 2988   7.403  -0.100   7.933
  551LIG     H3 2989   7.355   0.020   8.034
  551LIG     CA 2990   7.549   0.044   7.966
  551LIG     HA 2991   7.600   0.025   7.882
  551LIG     CB 2992   7.551   0.194   7.990
  551LIG    HB1 2993   7.498   0.215   8.073
  551LIG    HB2 2994   7.510   0.241   7.913
  551LIG     CG 2995   7.692   0.242   8.008
  551LIG    OD1 2996   7.739   0.233   8.134
  551LIG    OD2 2997   7.758   0.287   7.915
  551LIG      C 2998   7.616  -0.030   8.085
  551LIG    OT1 2999   7.538  -0.119   8.154
  551LIG    OT2 3000   7.746   0.001   8.112
  552LIG      N 3001   9.623   1.068   7.332
  552LIG     H1 3002   9.590   1.123   7.255
  552LIG     H2 3003   9.575   0.980   7.334
  552LIG     H3 3004   9.605   1.117   7.418
  552LIG     CA 3005   9.772   1.044   7.319
  552LIG     HA 3006   9.790   0.996   7.233
  552LIG     CB 3007   9.843   1.178   7.315
  552LIG    HB1 3008   9.823   1.229   7.400
  552LIG    HB2 3009   9.811   1.231   7.238
  552LIG     CG 3010   9.991   1.159   7.303
  552LIG    OD1 3011  10.056   1.141   7.421
  552LIG    OD2 3012  10.049   1.159   7.195
  552LIG      C 3013   9.824   0.960   7.438
  552LIG    OT1 3014   9.732   0.922   7.532
  552LIG    OT2 3015   9.957   0.930   7.440
  553LIG      N 3016   7.217   9.604   1.748
  553LIG     H1 3017   7.160   9.677   1.786
  553LIG     H2 3018   7.194   9.592   1.651
  553LIG     H3 3019   7.199   9.519   1.797
  553LIG     CA 3020   7.364   9.640   1.762
  553LIG     HA 3021   7.382   9.725   1.713
  553LIG     CB 3022   7.395   9.659   1.908
  553LIG    HB1 3023   7.375   9.575   1.959
  553LIG    HB2 3024   7.339   9.733   1.946
  553LIG     CG 3025   7.540   9.694   1.927
  553LIG    OD1 3026   7.623   9.587   1.935
  553LIG    OD2 3027   7.580   9.810   1.934
  553LIG      C 3028   7.452   9.527   1.703
  553LIG    OT1 3029   7.388   9.418   1.650
  553LIG    OT2 3030   7.587   9.544   1.708
  554LIG      N 3031   1.656   0.868   3.118
  554LIG     H1 3032   1.750   0.894   3.140
  554LIG     H2 3033   1.594   0.902   3.189
  554LIG     H3 3034   1.649   0.768   3.112
  554LIG     CA 3035   1.617   0.928   2.984
  554LIG     HA 3036   1.625   1.028   2.989
  554LIG     CB 3037   1.712   0.877   2.878
  554LIG    HB1 3038   1.708   0.777   2.874
  554LIG    HB2 3039   1.806   0.904   2.901
  554LIG     CG 3040   1.677   0.934   2.744
  554LIG    OD1 3041   1.583   0.864   2.676
  554LIG    OD2 3042   1.729   1.036   2.699
  554LIG      C 3043   1.472   0.889   2.948
  554LIG    OT1 3044   1.404   0.810   3.037
  554LIG    OT2 3045   1.422   0.936   2.830
  555LIG      N 3046   0.073   3.730   1.655
  555LIG     H1 3047   0.107   3.658   1.716
  555LIG     H2 3048   0.149   3.788   1.626
  555LIG     H3 3049   0.005   3.785   1.704
  555LIG     CA 3050   0.007   3.667   1.533
  555LIG     HA 3051   0.074   3.612   1.485
  555LIG     CB 3052  -0.106   3.578   1.579
  555LIG    HB1 3053  -0.173   3.633   1.630
  555LIG    HB2 3054  -0.071   3.506   1.638
  555LIG     CG 3055  -0.175   3.516   1.461
  555LIG    OD1 3056  -0.272   3.591   1.405
  555LIG    OD2 3057  -0.144   3.404   1.419
  555LIG      C 3058  -0.047   3.778   1.439
  555LIG    OT1 3059  -0.028   3.908   1.478
  555LIG    OT2 3060  -0.109   3.738   1.325
  556LIG      N 3061   4.273   1.048   3.566
  556LIG     H1 3062   4.306   1.131   3.610
  556LIG     H2 3063   4.183   1.065   3.525
  556LIG     H3 3064   4.266   0.974   3.634
  556LIG     CA 3065   4.370   1.006   3.457
  556LIG     HA 3066   4.377   1.079   3.389
  556LIG     CB 3067   4.506   0.982   3.519
  556LIG    HB1 3068   4.498   0.910   3.589
  556LIG    HB2 3069   4.538   1.066   3.562
  556LIG     CG 3070   4.604   0.939   3.415
  556LIG    OD1 3071   4.606   0.806   3.390
  556LIG    OD2 3072   4.678   1.018   3.357
  556LIG      C 3073   4.320   0.876   3.388
  556LIG    OT1 3074   4.202   0.822   3.433
  556LIG    OT2 3075   4.397   0.825   3.287
  557LIG      N 3076   1.186   3.517   2.540
  557LIG     H1 3077   1.156   3.424   2.562
  557LIG     H2 3078   1.286   3.520   2.537
  557LIG     H3 3079   1.152   3.580   2.610
  557LIG     CA 3080   1.129   3.558   2.405
  557LIG     HA 3081   1.162   3.496   2.335
  557LIG     CB 3082   0.978   3.551   2.411
  557LIG    HB1 3083   0.945   3.612   2.484
  557LIG    HB2 3084   0.950   3.458   2.432
  557LIG     CG 3085   0.919   3.593   2.280
  557LIG    OD1 3086   0.900   3.726   2.266
  557LIG    OD2 3087   0.889   3.512   2.193
  557LIG      C 3088   1.174   3.703   2.371
  557LIG    OT1 3089   1.253   3.767   2.462
  557LIG    OT2 3090   1.131   3.755   2.253
  558LIG      N 3091   7.687   1.473   9.948
  558LIG     H1 3092   7.590   1.494   9.938
  558LIG     H2 3093   7.738   1.557   9.968
  558LIG     H3 3094   7.721   1.432   9.863
  558LIG     CA 3095   7.707   1.374  10.061
  558LIG     HA 3096   7.673   1.413  10.146
  558LIG     CB 3097   7.629   1.248  10.031
  558LIG    HB1 3098   7.661   1.209   9.944
  558LIG    HB2 3099   7.532   1.269  10.022
  558LIG     CG 3100   7.647   1.147  10.140
  558LIG    OD1 3101   7.756   1.068  10.127
  558LIG    OD2 3102   7.569   1.137  10.234
  558LIG      C 3103   7.858   1.340  10.077
  558LIG    OT1 3104   7.944   1.401   9.990
  558LIG    OT2 3105   7.892   1.252  10.175
  559LIG      N 3106   3.643   8.315   9.405
  559LIG     H1 3107   3.611   8.295   9.311
  559LIG     H2 3108   3.637   8.231   9.460
  559LIG     H3 3109   3.584   8.385   9.445
  559LIG     CA 3110   3.786   8.364   9.401
  559LIG     HA 3111   3.844   8.294   9.360
  559LIG     CB 3112   3.793   8.490   9.316
  559LIG    HB1 3113   3.732   8.560   9.355
  559LIG    HB2 3114   3.762   8.469   9.224
  559LIG     CG 3115   3.933   8.542   9.312
  559LIG    OD1 3116   3.966   8.625   9.414
  559LIG    OD2 3117   4.011   8.514   9.221
  559LIG      C 3118   3.835   8.395   9.545
  559LIG    OT1 3119   3.747   8.374   9.647
  559LIG    OT2 3120   3.963   8.441   9.558
  560LIG      N 3121   5.936   5.485   0.650
  560LIG     H1 3122   5.901   5.576   0.671
  560LIG     H2 3123   5.960   5.479   0.553
  560LIG     H3 3124   5.866   5.417   0.672
  560LIG     CA 3125   6.059   5.458   0.735
  560LIG     HA 3126   6.129   5.527   0.714
  560LIG     CB 3127   6.022   5.469   0.881
  560LIG    HB1 3128   5.950   5.402   0.902
  560LIG    HB2 3129   5.988   5.560   0.900
  560LIG     CG 3130   6.141   5.442   0.967
  560LIG    OD1 3131   6.163   5.311   0.995
  560LIG    OD2 3132   6.214   5.532   1.010
  560LIG      C 3133   6.115   5.316   0.704
  560LIG    OT1 3134   6.047   5.242   0.611
  560LIG    OT2 3135   6.226   5.277   0.772
  561LIG      N 3136   8.758   2.364   3.822
  561LIG     H1 3137   8.840   2.369   3.764
  561LIG     H2 3138   8.783   2.392   3.916
  561LIG     H3 3139   8.723   2.271   3.823
  561LIG     CA 3140   8.651   2.458   3.769
  561LIG     HA 3141   8.687   2.551   3.767
  561LIG     CB 3142   8.617   2.417   3.627
  561LIG    HB1 3143   8.584   2.322   3.627
  561LIG    HB2 3144   8.698   2.423   3.570
  561LIG     CG 3145   8.510   2.506   3.571
  561LIG    OD1 3146   8.384   2.468   3.600
  561LIG    OD2 3147   8.536   2.605   3.503
  561LIG      C 3148   8.525   2.451   3.858
  561LIG    OT1 3149   8.529   2.367   3.966
  561LIG    OT2 3150   8.419   2.530   3.823
  562LIG      N 3151   6.689   1.303   9.730
  562LIG     H1 3152   6.645   1.219   9.698
  562LIG     H2 3153   6.696   1.302   9.830
  562LIG     H3 3154   6.634   1.382   9.701
  562LIG     CA 3155   6.827   1.314   9.669
  562LIG     HA 3156   6.882   1.235   9.697
  562LIG     CB 3157   6.815   1.314   9.518
  562LIG    HB1 3158   6.758   1.392   9.489
  562LIG    HB2 3159   6.772   1.229   9.488
  562LIG     CG 3160   6.950   1.326   9.455
  562LIG    OD1 3161   6.994   1.453   9.439
  562LIG    OD2 3162   7.015   1.228   9.419
  562LIG      C 3163   6.896   1.445   9.717
  562LIG    OT1 3164   6.825   1.525   9.801
  562LIG    OT2 3165   7.022   1.469   9.670
  563LIG      N 3166   7.408   0.697   8.362
  563LIG     H1 3167   7.372   0.790   8.365
  563LIG     H2 3168   7.490   0.694   8.306
  563LIG     H3 3169   7.338   0.636   8.323
  563LIG     CA 3170   7.441   0.651   8.503
  563LIG     HA 3171   7.509   0.712   8.542
  563LIG     CB 3172   7.315   0.656   8.587
  563LIG    HB1 3173   7.245   0.597   8.546
  563LIG    HB2 3174   7.281   0.750   8.590
  563LIG     CG 3175   7.344   0.610   8.727
  563LIG    OD1 3176   7.335   0.477   8.745
  563LIG    OD2 3177   7.372   0.688   8.818
  563LIG      C 3178   7.496   0.506   8.500
  563LIG    OT1 3179   7.506   0.445   8.377
  563LIG    OT2 3180   7.530   0.450   8.619
  564LIG      N 3181   0.366   0.574   2.076
  564LIG     H1 3182   0.387   0.480   2.104
  564LIG     H2 3183   0.420   0.638   2.130
  564LIG     H3 3184   0.268   0.591   2.089
  564LIG     CA 3185   0.400   0.591   1.928
  564LIG     HA 3186   0.497   0.572   1.914
  564LIG     CB 3187   0.319   0.491   1.848
  564LIG    HB1 3188   0.221   0.507   1.864
  564LIG    HB2 3189   0.341   0.398   1.877
  564LIG     CG 3190   0.348   0.506   1.702
  564LIG    OD1 3191   0.274   0.599   1.638
  564LIG    OD2 3192   0.433   0.438   1.644
  564LIG      C 3193   0.366   0.735   1.883
  564LIG    OT1 3194   0.315   0.820   1.977
  564LIG    OT2 3195   0.391   0.766   1.752
  565LIG      N 3196   7.523   0.549   1.742
  565LIG     H1 3197   7.618   0.565   1.771
  565LIG     H2 3198   7.523   0.490   1.661
  565LIG     H3 3199   7.479   0.636   1.721
  565LIG     CA 3200   7.447   0.480   1.854
  565LIG     HA 3201   7.491   0.394   1.876
  565LIG     CB 3202   7.449   0.569   1.976
  565LIG    HB1 3203   7.407   0.658   1.954
  565LIG    HB2 3204   7.543   0.585   2.005
  565LIG     CG 3205   7.373   0.506   2.089
  565LIG    OD1 3206   7.240   0.531   2.089
  565LIG    OD2 3207   7.428   0.437   2.175
  565LIG      C 3208   7.300   0.454   1.810
  565LIG    OT1 3209   7.265   0.495   1.684
  565LIG    OT2 3210   7.218   0.393   1.900
  566LIG      N 3211   2.554   1.184   8.577
  566LIG     H1 3212   2.528   1.205   8.671
  566LIG     H2 3213   2.612   1.257   8.542
  566LIG     H3 3214   2.473   1.174   8.520
  566LIG     CA 3215   2.632   1.052   8.575
  566LIG     HA 3216   2.713   1.061   8.632
  566LIG     CB 3217   2.543   0.943   8.630
  566LIG    HB1 3218   2.460   0.936   8.575
  566LIG    HB2 3219   2.518   0.964   8.724
  566LIG     CG 3220   2.615   0.812   8.628
  566LIG    OD1 3221   2.606   0.744   8.511
  566LIG    OD2 3222   2.678   0.769   8.725
  566LIG      C 3223   2.673   1.018   8.429
  566LIG    OT1 3224   2.636   1.107   8.331
  566LIG    OT2 3225   2.743   0.903   8.410
  567LIG      N 3226   3.648   9.810   1.529
  567LIG     H1 3227   3.725   9.832   1.589
  567LIG     H2 3228   3.565   9.852   1.566
  567LIG     H3 3229   3.636   9.711   1.525
  567LIG     CA 3230   3.674   9.863   1.389
  567LIG     HA 3231   3.686   9.962   1.393
  567LIG     CB 3232   3.800   9.799   1.336
  567LIG    HB1 3233   3.790   9.699   1.334
  567LIG    HB2 3234   3.877   9.822   1.395
  567LIG     CG 3235   3.829   9.848   1.197
  567LIG    OD1 3236   3.767   9.778   1.099
  567LIG    OD2 3237   3.903   9.943   1.174
  567LIG      C 3238   3.554   9.829   1.296
  567LIG    OT1 3239   3.449   9.760   1.352
  567LIG    OT2 3240   3.563   9.869   1.167
  568LIG      N 3241   9.426   6.762   4.635
  568LIG     H1 3242   9.445   6.831   4.565
  568LIG     H2 3243   9.330   6.735   4.631
  568LIG     H3 3244   9.446   6.801   4.725
  568LIG     CA 3245   9.515   6.641   4.612
  568LIG     HA 3246   9.496   6.603   4.521
  568LIG     CB 3247   9.660   6.684   4.617
  568LIG    HB1 3248   9.679   6.725   4.707
  568LIG    HB2 3249   9.677   6.752   4.547
  568LIG     CG 3250   9.750   6.567   4.596
  568LIG    OD1 3251   9.779   6.497   4.708
  568LIG    OD2 3252   9.795   6.537   4.485
  568LIG      C 3253   9.487   6.534   4.720
  568LIG    OT1 3254   9.393   6.563   4.815
  568LIG    OT2 3255   9.559   6.418   4.713
  569LIG      N 3256   1.098   7.631   8.429
  569LIG     H1 3257   1.056   7.541   8.428
  569LIG     H2 3258   1.035   7.698   8.388
  569LIG     H3 3259   1.183   7.629   8.377
  569LIG     CA 3260   1.128   7.672   8.572
  569LIG     HA 3261   1.043   7.674   8.625
  569LIG     CB 3262   1.222   7.571   8.633
  569LIG    HB1 3263   1.307   7.566   8.579
  569LIG    HB2 3264   1.179   7.481   8.633
  569LIG     CG 3265   1.256   7.608   8.774
  569LIG    OD1 3266   1.360   7.694   8.787
  569LIG    OD2 3267   1.193   7.564   8.871
  569LIG      C 3268   1.194   7.813   8.575
  569LIG    OT1 3269   1.213   7.875   8.454
  569LIG    OT2 3270   1.227   7.864   8.697
  570LIG      N 3271   2.539   9.931   4.143
  570LIG     H1 3272   2.523  10.017   4.094
  570LIG     H2 3273   2.452   9.892   4.173
  570LIG     H3 3274   2.597   9.949   4.223
  570LIG     CA 3275   2.610   9.833   4.052
  570LIG     HA 3276   2.554   9.815   3.971
  570LIG     CB 3277   2.741   9.894   4.007
  570LIG    HB1 3278   2.798   9.914   4.087
  570LIG    HB2 3279   2.724   9.978   3.957
  570LIG     CG 3280   2.815   9.799   3.918
  570LIG    OD1 3281   2.893   9.709   3.982
  570LIG    OD2 3282   2.806   9.803   3.795
  570LIG      C 3283   2.637   9.700   4.127
  570LIG    OT1 3284   2.594   9.692   4.257
  570LIG    OT2 3285   2.700   9.601   4.058
  571LIG      N 3286   1.002   8.330   7.397
  571LIG     H1 3287   1.010   8.272   7.478
  571LIG     H2 3288   1.062   8.296   7.325
  571LIG     H3 3289   1.026   8.424   7.421
  571LIG     CA 3290   0.858   8.327   7.348
  571LIG     HA 3291   0.832   8.234   7.325
  571LIG     CB 3292   0.767   8.377   7.458
  571LIG    HB1 3293   0.794   8.471   7.484
  571LIG    HB2 3294   0.776   8.318   7.538
  571LIG     CG 3295   0.625   8.377   7.413
  571LIG    OD1 3296   0.586   8.489   7.348
  571LIG    OD2 3297   0.548   8.283   7.434
  571LIG      C 3298   0.843   8.418   7.223
  571LIG    OT1 3299   0.955   8.482   7.179
  571LIG    OT2 3300   0.719   8.426   7.166
  572LIG      N 3301   4.405   0.905   7.178
  572LIG     H1 3302   4.368   0.824   7.224
  572LIG     H2 3303   4.444   0.967   7.246
  572LIG     H3 3304   4.331   0.951   7.128
  572LIG     CA 3305   4.513   0.863   7.079
  572LIG     HA 3306   4.586   0.816   7.128
  572LIG     CB 3307   4.452   0.768   6.978
  572LIG    HB1 3308   4.376   0.813   6.930
  572LIG    HB2 3309   4.417   0.687   7.025
  572LIG     CG 3310   4.555   0.725   6.878
  572LIG    OD1 3311   4.570   0.808   6.773
  572LIG    OD2 3312   4.621   0.622   6.891
  572LIG      C 3313   4.570   0.988   7.007
  572LIG    OT1 3314   4.518   1.109   7.041
  572LIG    OT2 3315   4.668   0.966   6.915
  573LIG      N 3316   7.970   4.043   5.723
  573LIG     H1 3317   7.935   3.957   5.760
  573LIG     H2 3318   8.053   4.070   5.772
  573LIG     H3 3319   7.900   4.114   5.734
  573LIG     CA 3320   8.001   4.026   5.575
  573LIG     HA 3321   8.071   3.955   5.564
  573LIG     CB 3322   7.876   3.984   5.503
  573LIG    HB1 3323   7.804   4.054   5.516
  573LIG    HB2 3324   7.843   3.898   5.540
  573LIG     CG 3325   7.903   3.968   5.356
  573LIG    OD1 3326   7.892   4.082   5.284
  573LIG    OD2 3327   7.932   3.860   5.306
  573LIG      C 3328   8.054   4.160   5.517
  573LIG    OT1 3329   8.063   4.267   5.603
  573LIG    OT2 3330   8.087   4.161   5.385
  574LIG      N 3331   3.778   8.957   5.285
  574LIG     H1 3332   3.773   8.966   5.185
  574LIG     H2 3333   3.808   8.865   5.309
  574LIG     H3 3334   3.687   8.974   5.324
  574LIG     CA 3335   3.875   9.059   5.341
  574LIG     HA 3336   3.966   9.043   5.302
  574LIG     CB 3337   3.828   9.198   5.303
  574LIG    HB1 3338   3.736   9.213   5.340
  574LIG    HB2 3339   3.826   9.206   5.204
  574LIG     CG 3340   3.922   9.301   5.359
  574LIG    OD1 3341   3.894   9.340   5.485
  574LIG    OD2 3342   4.015   9.348   5.293
  574LIG      C 3343   3.882   9.046   5.496
  574LIG    OT1 3344   3.804   8.950   5.554
  574LIG    OT2 3345   3.966   9.131   5.562
  575LIG      N 3346   4.733   1.183   8.530
  575LIG     H1 3347   4.713   1.236   8.613
  575LIG     H2 3348   4.647   1.152   8.489
  575LIG     H3 3349   4.790   1.105   8.553
  575LIG     CA 3350   4.807   1.271   8.430
  575LIG     HA 3351   4.751   1.351   8.408
  575LIG     CB 3352   4.936   1.319   8.494
  575LIG    HB1 3353   4.992   1.240   8.519
  575LIG    HB2 3354   4.915   1.372   8.576
  575LIG     CG 3355   5.012   1.405   8.398
  575LIG    OD1 3356   5.093   1.337   8.313
  575LIG    OD2 3357   5.003   1.528   8.397
  575LIG      C 3358   4.838   1.191   8.301
  575LIG    OT1 3359   4.796   1.060   8.297
  575LIG    OT2 3360   4.904   1.256   8.202
  576LIG      N 3361   1.072   4.263   9.802
  576LIG     H1 3362   1.167   4.285   9.782
  576LIG     H2 3363   1.019   4.259   9.717
  576LIG     H3 3364   1.033   4.334   9.862
  576LIG     CA 3365   1.064   4.129   9.873
  576LIG     HA 3366   1.103   4.058   9.814
  576LIG     CB 3367   1.145   4.136  10.001
  576LIG    HB1 3368   1.108   4.209  10.060
  576LIG    HB2 3369   1.240   4.157   9.980
  576LIG     CG 3370   1.138   4.005  10.074
  576LIG    OD1 3371   1.032   3.992  10.156
  576LIG    OD2 3372   1.224   3.918  10.060
  576LIG      C 3373   0.916   4.094   9.905
  576LIG    OT1 3374   0.821   4.185   9.867
  576LIG    OT2 3375   0.893   3.976   9.969
  577LIG      N 3376   9.109   5.461   1.394
  577LIG     H1 3377   9.205   5.478   1.372
  577LIG     H2 3378   9.076   5.383   1.340
  577LIG     H3 3379   9.055   5.543   1.371
  577LIG     CA 3380   9.094   5.431   1.542
  577LIG     HA 3381   9.148   5.351   1.565
  577LIG     CB 3382   9.145   5.550   1.621
  577LIG    HB1 3383   9.093   5.632   1.597
  577LIG    HB2 3384   9.241   5.565   1.600
  577LIG     CG 3385   9.131   5.524   1.768
  577LIG    OD1 3386   9.011   5.558   1.820
  577LIG    OD2 3387   9.222   5.478   1.836
  577LIG      C 3388   8.945   5.405   1.576
  577LIG    OT1 3389   8.855   5.413   1.474
  577LIG    OT2 3390   8.915   5.377   1.706
  578LIG      N 3391   1.485   1.731   6.948
  578LIG     H1 3392   1.483   1.739   6.848
  578LIG     H2 3393   1.557   1.792   6.984
  578LIG     H3 3394   1.504   1.637   6.974
  578LIG     CA 3395   1.350   1.773   7.005
  578LIG     HA 3396   1.330   1.867   6.979
  578LIG     CB 3397   1.244   1.682   6.949
  578LIG    HB1 3398   1.264   1.586   6.973
  578LIG    HB2 3399   1.241   1.690   6.850
  578LIG     CG 3400   1.109   1.718   7.004
  578LIG    OD1 3401   1.079   1.660   7.122
  578LIG    OD2 3402   1.032   1.795   6.946
  578LIG      C 3403   1.353   1.761   7.160
  578LIG    OT1 3404   1.470   1.719   7.218
  578LIG    OT2 3405   1.239   1.795   7.227
  579LIG      N 3406   0.726   2.768   9.878
  579LIG     H1 3407   0.640   2.762   9.929
  579LIG     H2 3408   0.710   2.815   9.791
  579LIG     H3 3409   0.761   2.676   9.861
  579LIG     CA 3410   0.828   2.846   9.959
  579LIG     HA 3411   0.793   2.938   9.977
  579LIG     CB 3412   0.850   2.775  10.091
  579LIG    HB1 3413   0.883   2.682  10.074
  579LIG    HB2 3414   0.764   2.770  10.141
  579LIG     CG 3415   0.952   2.848  10.173
  579LIG    OD1 3416   1.080   2.815  10.148
  579LIG    OD2 3417   0.920   2.932  10.258
  579LIG      C 3418   0.962   2.855   9.881
  579LIG    OT1 3419   0.967   2.795   9.758
  579LIG    OT2 3420   1.064   2.923   9.941
  580LIG      N 3421  10.015   6.343   0.180
  580LIG     H1 3422   9.949   6.270   0.199
  580LIG     H2 3423  10.047   6.336   0.086
  580LIG     H3 3424  10.093   6.335   0.243
  580LIG     CA 3425   9.949   6.478   0.201
  580LIG     HA 3426   9.871   6.487   0.140
  580LIG     CB 3427   9.901   6.488   0.344
  580LIG    HB1 3428   9.978   6.476   0.407
  580LIG    HB2 3429   9.834   6.415   0.362
  580LIG     CG 3430   9.836   6.620   0.369
  580LIG    OD1 3431   9.921   6.719   0.404
  580LIG    OD2 3432   9.715   6.638   0.358
  580LIG      C 3433  10.051   6.592   0.172
  580LIG    OT1 3434  10.177   6.555   0.135
  580LIG    OT2 3435  10.006   6.720   0.187
  581LIG      N 3436   5.392   1.606   6.228
  581LIG     H1 3437   5.422   1.544   6.301
  581LIG     H2 3438   5.455   1.599   6.150
  581LIG     H3 3439   5.392   1.700   6.262
  581LIG     CA 3440   5.252   1.568   6.183
  581LIG     HA 3441   5.252   1.474   6.149
  581LIG     CB 3442   5.159   1.578   6.301
  581LIG    HB1 3443   5.160   1.671   6.337
  581LIG    HB2 3444   5.188   1.515   6.372
  581LIG     CG 3445   5.019   1.543   6.260
  581LIG    OD1 3446   4.947   1.646   6.210
  581LIG    OD2 3447   4.973   1.429   6.272
  581LIG      C 3448   5.205   1.664   6.070
  581LIG    OT1 3449   5.292   1.762   6.031
  581LIG    OT2 3450   5.081   1.643   6.019
  582LIG      N 3451   2.170   8.164   1.363
  582LIG     H1 3452   2.226   8.096   1.314
  582LIG     H2 3453   2.158   8.135   1.458
  582LIG     H3 3454   2.081   8.171   1.318
  582LIG     CA 3455   2.240   8.299   1.359
  582LIG     HA 3456   2.329   8.292   1.403
  582LIG     CB 3457   2.259   8.341   1.215
  582LIG    HB1 3458   2.170   8.345   1.169
  582LIG    HB2 3459   2.315   8.273   1.168
  582LIG     CG 3460   2.325   8.474   1.207
  582LIG    OD1 3461   2.241   8.580   1.213
  582LIG    OD2 3462   2.447   8.487   1.196
  582LIG      C 3463   2.153   8.405   1.433
  582LIG    OT1 3464   2.035   8.362   1.487
  582LIG    OT2 3465   2.202   8.532   1.439
  583LIG      N 3466   0.396   3.552   8.032
  583LIG     H1 3467   0.482   3.501   8.033
  583LIG     H2 3468   0.348   3.537   8.119
  583LIG     H3 3469   0.340   3.520   7.956
  583LIG     CA 3470   0.424   3.700   8.014
  583LIG     HA 3471   0.481   3.732   8.089
  583LIG     CB 3472   0.498   3.720   7.884
  583LIG    HB1 3473   0.443   3.686   7.808
  583LIG    HB2 3474   0.585   3.670   7.886
  583LIG     CG 3475   0.527   3.866   7.862
  583LIG    OD1 3476   0.427   3.934   7.802
  583LIG    OD2 3477   0.633   3.918   7.895
  583LIG      C 3478   0.291   3.780   8.012
  583LIG    OT1 3479   0.175   3.708   8.026
  583LIG    OT2 3480   0.299   3.915   7.996
  584LIG      N 3481   8.242  10.021   3.830
  584LIG     H1 3482   8.296   9.952   3.877
  584LIG     H2 3483   8.203  10.085   3.896
  584LIG     H3 3484   8.167   9.976   3.780
  584LIG     CA 3485   8.330  10.096   3.731
  584LIG     HA 3486   8.404  10.140   3.781
  584LIG     CB 3487   8.388   9.998   3.632
  584LIG    HB1 3488   8.313   9.951   3.584
  584LIG    HB2 3489   8.443   9.930   3.680
  584LIG     CG 3490   8.474  10.069   3.532
  584LIG    OD1 3491   8.408  10.118   3.426
  584LIG    OD2 3492   8.596  10.080   3.547
  584LIG      C 3493   8.246  10.203   3.656
  584LIG    OT1 3494   8.113  10.213   3.689
  584LIG    OT2 3495   8.311  10.280   3.564
  585LIG      N 3496   4.787   7.668   0.058
  585LIG     H1 3497   4.859   7.616   0.012
  585LIG     H2 3498   4.709   7.608   0.077
  585LIG     H3 3499   4.758   7.743  -0.001
  585LIG     CA 3500   4.840   7.725   0.188
  585LIG     HA 3501   4.870   7.651   0.248
  585LIG     CB 3502   4.958   7.815   0.158
  585LIG    HB1 3503   4.929   7.889   0.097
  585LIG    HB2 3504   5.030   7.762   0.114
  585LIG     CG 3505   5.012   7.874   0.285
  585LIG    OD1 3506   4.951   7.988   0.324
  585LIG    OD2 3507   5.105   7.824   0.347
  585LIG      C 3508   4.728   7.807   0.260
  585LIG    OT1 3509   4.606   7.814   0.197
  585LIG    OT2 3510   4.760   7.864   0.379
  586LIG      N 3511   5.439   9.798   7.233
  586LIG     H1 3512   5.367   9.745   7.279
  586LIG     H2 3513   5.418   9.806   7.136
  586LIG     H3 3514   5.527   9.753   7.245
  586LIG     CA 3515   5.445   9.937   7.295
  586LIG     HA 3516   5.357   9.983   7.284
  586LIG     CB 3517   5.475   9.924   7.442
  586LIG    HB1 3518   5.563   9.877   7.454
  586LIG    HB2 3519   5.404   9.872   7.487
  586LIG     CG 3520   5.484  10.060   7.506
  586LIG    OD1 3521   5.606  10.118   7.499
  586LIG    OD2 3522   5.388  10.113   7.561
  586LIG      C 3523   5.556  10.021   7.225
  586LIG    OT1 3524   5.626   9.960   7.125
  586LIG    OT2 3525   5.574  10.149   7.269
  587LIG      N 3526   0.596   0.292   3.411
  587LIG     H1 3527   0.618   0.206   3.458
  587LIG     H2 3528   0.649   0.297   3.326
  587LIG     H3 3529   0.620   0.369   3.471
  587LIG     CA 3530   0.448   0.296   3.380
  587LIG     HA 3531   0.424   0.219   3.321
  587LIG     CB 3532   0.370   0.286   3.509
  587LIG    HB1 3533   0.395   0.362   3.570
  587LIG    HB2 3534   0.391   0.200   3.555
  587LIG     CG 3535   0.223   0.292   3.482
  587LIG    OD1 3536   0.171   0.417   3.475
  587LIG    OD2 3537   0.154   0.191   3.468
  587LIG      C 3538   0.413   0.429   3.307
  587LIG    OT1 3539   0.516   0.517   3.284
  587LIG    OT2 3540   0.283   0.448   3.272
  588LIG      N 3541   4.333   1.585   2.827
  588LIG     H1 3542   4.418   1.532   2.822
  588LIG     H2 3543   4.274   1.547   2.898
  588LIG     H3 3544   4.287   1.581   2.738
  588LIG     CA 3545   4.365   1.730   2.860
  588LIG     HA 3546   4.412   1.734   2.948
  588LIG     CB 3547   4.456   1.786   2.752
  588LIG    HB1 3548   4.410   1.779   2.663
  588LIG    HB2 3549   4.541   1.733   2.749
  588LIG     CG 3550   4.488   1.929   2.781
  588LIG    OD1 3551   4.398   2.018   2.733
  588LIG    OD2 3552   4.590   1.963   2.842
  588LIG      C 3553   4.234   1.812   2.866
  588LIG    OT1 3554   4.117   1.746   2.843
  588LIG    OT2 3555   4.246   1.945   2.895
  589LIG      N 3556   2.274   1.530   1.574
  589LIG     H1 3557   2.186   1.576   1.588
  589LIG     H2 3558   2.340   1.595   1.536
  589LIG     H3 3559   2.262   1.453   1.512
  589LIG     CA 3560   2.326   1.479   1.708
  589LIG     HA 3561   2.337   1.555   1.771
  589LIG     CB 3562   2.225   1.382   1.765
  589LIG    HB1 3563   2.211   1.306   1.701
  589LIG    HB2 3564   2.138   1.428   1.779
  589LIG     CG 3565   2.273   1.328   1.896
  589LIG    OD1 3566   2.353   1.219   1.887
  589LIG    OD2 3567   2.241   1.378   2.004
  589LIG      C 3568   2.462   1.407   1.688
  589LIG    OT1 3569   2.512   1.402   1.560
  589LIG    OT2 3570   2.522   1.355   1.798
  590LIG      N 3571   5.465   9.197   4.912
  590LIG     H1 3572   5.534   9.130   4.937
  590LIG     H2 3573   5.483   9.231   4.819
  590LIG     H3 3574   5.468   9.274   4.977
  590LIG     CA 3575   5.327   9.134   4.916
  590LIG     HA 3576   5.324   9.057   4.852
  590LIG     CB 3577   5.301   9.082   5.055
  590LIG    HB1 3578   5.307   9.158   5.121
  590LIG    HB2 3579   5.370   9.014   5.079
  590LIG     CG 3580   5.165   9.020   5.064
  590LIG    OD1 3581   5.065   9.106   5.091
  590LIG    OD2 3582   5.147   8.899   5.048
  590LIG      C 3583   5.219   9.238   4.877
  590LIG    OT1 3584   5.262   9.365   4.847
  590LIG    OT2 3585   5.089   9.196   4.876
  591LIG      N 3586   1.347   3.292   6.819
  591LIG     H1 3587   1.412   3.251   6.883
  591LIG     H2 3588   1.304   3.221   6.764
  591LIG     H3 3589   1.395   3.356   6.759
  591LIG     CA 3590   1.240   3.368   6.897
  591LIG     HA 3591   1.192   3.305   6.957
  591LIG     CB 3592   1.306   3.475   6.980
  591LIG    HB1 3593   1.357   3.537   6.920
  591LIG    HB2 3594   1.370   3.433   7.044
  591LIG     CG 3595   1.204   3.553   7.057
  591LIG    OD1 3596   1.149   3.656   6.990
  591LIG    OD2 3597   1.173   3.524   7.173
  591LIG      C 3598   1.139   3.433   6.798
  591LIG    OT1 3599   1.160   3.413   6.665
  591LIG    OT2 3600   1.037   3.504   6.853
  592LIG      N 3601   0.743   9.764   5.079
  592LIG     H1 3602   0.836   9.781   5.047
  592LIG     H2 3603   0.740   9.768   5.179
  592LIG     H3 3604   0.712   9.674   5.047
  592LIG     CA 3605   0.650   9.871   5.023
  592LIG     HA 3606   0.680   9.961   5.053
  592LIG     CB 3607   0.656   9.866   4.871
  592LIG    HB1 3608   0.628   9.774   4.840
  592LIG    HB2 3609   0.749   9.883   4.841
  592LIG     CG 3610   0.564   9.968   4.812
  592LIG    OD1 3611   0.436   9.927   4.796
  592LIG    OD2 3612   0.603  10.080   4.779
  592LIG      C 3613   0.504   9.845   5.071
  592LIG    OT1 3614   0.484   9.737   5.152
  592LIG    OT2 3615   0.409   9.932   5.028
  593LIG      N 3616   8.294   9.187   6.299
  593LIG     H1 3617   8.333   9.217   6.212
  593LIG     H2 3618   8.256   9.265   6.348
  593LIG     H3 3619   8.366   9.145   6.355
  593LIG     CA 3620   8.185   9.084   6.274
  593LIG     HA 3621   8.113   9.126   6.218
  593LIG     CB 3622   8.244   8.967   6.200
  593LIG    HB1 3623   8.318   8.926   6.254
  593LIG    HB2 3624   8.281   8.997   6.112
  593LIG     CG 3625   8.139   8.863   6.174
  593LIG    OD1 3626   8.121   8.774   6.275
  593LIG    OD2 3627   8.074   8.858   6.069
  593LIG      C 3628   8.125   9.037   6.409
  593LIG    OT1 3629   8.177   9.091   6.523
  593LIG    OT2 3630   8.025   8.944   6.403
  594LIG      N 3631   5.575   8.504   7.400
  594LIG     H1 3632   5.484   8.546   7.393
  594LIG     H2 3633   5.627   8.550   7.472
  594LIG     H3 3634   5.622   8.514   7.312
  594LIG     CA 3635   5.561   8.356   7.433
  594LIG     HA 3636   5.513   8.346   7.520
  594LIG     CB 3637   5.480   8.289   7.324
  594LIG    HB1 3638   5.526   8.301   7.236
  594LIG    HB2 3639   5.389   8.331   7.319
  594LIG     CG 3640   5.465   8.143   7.352
  594LIG    OD1 3641   5.567   8.066   7.307
  594LIG    OD2 3642   5.367   8.097   7.411
  594LIG      C 3643   5.701   8.291   7.443
  594LIG    OT1 3644   5.809   8.371   7.422
  594LIG    OT2 3645   5.705   8.158   7.472
  595LIG      N 3646   0.224   0.487   5.475
  595LIG     H1 3647   0.136   0.482   5.428
  595LIG     H2 3648   0.250   0.583   5.488
  595LIG     H3 3649   0.294   0.440   5.420
  595LIG     CA 3650   0.213   0.419   5.611
  595LIG     HA 3651   0.144   0.465   5.665
  595LIG     CB 3652   0.173   0.275   5.590
  595LIG    HB1 3653   0.242   0.228   5.533
  595LIG    HB2 3654   0.085   0.271   5.544
  595LIG     CG 3655   0.163   0.204   5.721
  595LIG    OD1 3656   0.279   0.152   5.767
  595LIG    OD2 3657   0.056   0.193   5.782
  595LIG      C 3658   0.350   0.426   5.684
  595LIG    OT1 3659   0.453   0.488   5.620
  595LIG    OT2 3660   0.356   0.369   5.808
  596LIG      N 3661   1.162   5.782   7.246
  596LIG     H1 3662   1.133   5.875   7.272
  596LIG     H2 3663   1.170   5.777   7.146
  596LIG     H3 3664   1.094   5.716   7.278
  596LIG     CA 3665   1.297   5.751   7.309
  596LIG     HA 3666   1.364   5.817   7.278
  596LIG     CB 3667   1.283   5.761   7.459
  596LIG    HB1 3668   1.213   5.696   7.491
  596LIG    HB2 3669   1.256   5.853   7.485
  596LIG     CG 3670   1.414   5.729   7.526
  596LIG    OD1 3671   1.435   5.597   7.548
  596LIG    OD2 3672   1.495   5.816   7.557
  596LIG      C 3673   1.342   5.608   7.269
  596LIG    OT1 3674   1.258   5.537   7.187
  596LIG    OT2 3675   1.461   5.565   7.318
  597LIG      N 3676   9.956   2.260   0.301
  597LIG     H1 3677   9.959   2.333   0.369
  597LIG     H2 3678   9.970   2.298   0.210
  597LIG     H3 3679   9.867   2.214   0.305
  597LIG     CA 3680  10.065   2.159   0.331
  597LIG     HA 3681  10.154   2.204   0.327
  597LIG     CB 3682  10.044   2.103   0.470
  597LIG    HB1 3683   9.953   2.059   0.475
  597LIG    HB2 3684  10.048   2.176   0.537
  597LIG     CG 3685  10.149   2.001   0.502
  597LIG    OD1 3686  10.121   1.876   0.461
  597LIG    OD2 3687  10.252   2.030   0.562
  597LIG      C 3688  10.061   2.044   0.226
  597LIG    OT1 3689   9.965   2.051   0.129
  597LIG    OT2 3690  10.153   1.944   0.240
  598LIG      N 3691   8.202   9.477   0.657
  598LIG     H1 3692   8.202   9.461   0.559
  598LIG     H2 3693   8.249   9.402   0.704
  598LIG     H3 3694   8.107   9.484   0.690
  598LIG     CA 3695   8.274   9.608   0.687
  598LIG     HA 3696   8.368   9.602   0.653
  598LIG     CB 3697   8.203   9.720   0.615
  598LIG    HB1 3698   8.107   9.725   0.646
  598LIG    HB2 3699   8.204   9.704   0.517
  598LIG     CG 3700   8.270   9.851   0.643
  598LIG    OD1 3701   8.228   9.914   0.756
  598LIG    OD2 3702   8.356   9.899   0.569
  598LIG      C 3703   8.274   9.635   0.840
  598LIG    OT1 3704   8.213   9.542   0.920
  598LIG    OT2 3705   8.335   9.749   0.882
  599LIG      N 3706   8.252   8.299   2.905
  599LIG     H1 3707   8.277   8.332   2.814
  599LIG     H2 3708   8.171   8.240   2.898
  599LIG     H3 3709   8.232   8.377   2.965
  599LIG     CA 3710   8.368   8.220   2.964
  599LIG     HA 3711   8.389   8.143   2.905
  599LIG     CB 3712   8.489   8.310   2.973
  599LIG    HB1 3713   8.468   8.390   3.030
  599LIG    HB2 3714   8.514   8.342   2.882
  599LIG     CG 3715   8.605   8.236   3.032
  599LIG    OD1 3716   8.610   8.238   3.167
  599LIG    OD2 3717   8.690   8.180   2.963
  599LIG      C 3718   8.330   8.168   3.106
  599LIG    OT1 3719   8.206   8.200   3.153
  599LIG    OT2 3720   8.424   8.096   3.172
  600LIG      N 3721   6.807   1.700   0.581
  600LIG     H1 3722   6.752   1.709   0.665
  600LIG     H2 3723   6.755   1.649   0.513
  600LIG     H3 3724   6.892   1.652   0.602
  600LIG     CA 3725   6.840   1.839   0.528
  600LIG     HA 3726   6.755   1.888   0.508
  600LIG     CB 3727   6.917   1.915   0.633
  600LIG    HB1 3728   7.001   1.865   0.656
  600LIG    HB2 3729   6.861   1.924   0.715
  600LIG     CG 3730   6.952   2.052   0.583
  600LIG    OD1 3731   7.067   2.058   0.512
  600LIG    OD2 3732   6.883   2.151   0.606
  600LIG      C 3733   6.925   1.827   0.398
  600LIG    OT1 3734   6.955   1.700   0.355
  600LIG    OT2 3735   6.962   1.943   0.338
  601LIG      N 3736   0.934   7.026   9.375
  601LIG     H1 3737   0.876   6.967   9.431
  601LIG     H2 3738   0.921   7.002   9.278
  601LIG     H3 3739   1.030   7.013   9.400
  601LIG     CA 3740   0.896   7.171   9.397
  601LIG     HA 3741   0.800   7.184   9.373
  601LIG     CB 3742   0.914   7.205   9.543
  601LIG    HB1 3743   1.010   7.189   9.570
  601LIG    HB2 3744   0.855   7.146   9.599
  601LIG     CG 3745   0.879   7.348   9.569
  601LIG    OD1 3746   0.979   7.436   9.549
  601LIG    OD2 3747   0.767   7.382   9.606
  601LIG      C 3748   0.985   7.263   9.310
  601LIG    OT1 3749   1.079   7.203   9.231
  601LIG    OT2 3750   0.963   7.397   9.319
  602LIG      N 3751   9.703   0.998   3.188
  602LIG     H1 3752   9.800   0.981   3.166
  602LIG     H2 3753   9.692   1.001   3.287
  602LIG     H3 3754   9.647   0.925   3.149
  602LIG     CA 3755   9.660   1.131   3.127
  602LIG     HA 3756   9.717   1.204   3.165
  602LIG     CB 3757   9.680   1.125   2.978
  602LIG    HB1 3758   9.626   1.050   2.939
  602LIG    HB2 3759   9.776   1.109   2.957
  602LIG     CG 3760   9.637   1.254   2.914
  602LIG    OD1 3761   9.506   1.262   2.884
  602LIG    OD2 3762   9.716   1.346   2.891
  602LIG      C 3763   9.511   1.158   3.160
  602LIG    OT1 3764   9.445   1.064   3.234
  602LIG    OT2 3765   9.457   1.274   3.113
  603LIG      N 3766   3.135   7.827   0.718
  603LIG     H1 3767   3.075   7.904   0.741
  603LIG     H2 3768   3.140   7.817   0.619
  603LIG     H3 3769   3.098   7.743   0.759
  603LIG     CA 3770   3.274   7.852   0.774
  603LIG     HA 3771   3.311   7.936   0.735
  603LIG     CB 3772   3.264   7.868   0.924
  603LIG    HB1 3773   3.224   7.786   0.965
  603LIG    HB2 3774   3.205   7.946   0.946
  603LIG     CG 3775   3.400   7.892   0.983
  603LIG    OD1 3776   3.469   7.779   1.013
  603LIG    OD2 3777   3.444   8.005   1.004
  603LIG      C 3778   3.367   7.733   0.740
  603LIG    OT1 3779   3.312   7.629   0.669
  603LIG    OT2 3780   3.496   7.740   0.784
  604LIG      N 3781   2.608   9.403   1.523
  604LIG     H1 3782   2.600   9.493   1.480
  604LIG     H2 3783   2.681   9.351   1.478
  604LIG     H3 3784   2.521   9.354   1.513
  604LIG     CA 3785   2.640   9.419   1.670
  604LIG     HA 3786   2.726   9.468   1.680
  604LIG     CB 3787   2.530   9.498   1.736
  604LIG    HB1 3788   2.442   9.451   1.724
  604LIG    HB2 3789   2.523   9.588   1.694
  604LIG     CG 3790   2.557   9.514   1.883
  604LIG    OD1 3791   2.513   9.413   1.960
  604LIG    OD2 3792   2.614   9.613   1.928
  604LIG      C 3793   2.652   9.279   1.737
  604LIG    OT1 3794   2.633   9.170   1.657
  604LIG    OT2 3795   2.680   9.276   1.870
  605LIG      N 3796   2.930   8.671   7.651
  605LIG     H1 3797   2.831   8.685   7.657
  605LIG     H2 3798   2.950   8.605   7.580
  605LIG     H3 3799   2.964   8.638   7.739
  605LIG     CA 3800   2.997   8.803   7.618
  605LIG     HA 3801   2.963   8.837   7.531
  605LIG     CB 3802   2.965   8.904   7.727
  605LIG    HB1 3803   2.997   8.869   7.815
  605LIG    HB2 3804   2.866   8.918   7.731
  605LIG     CG 3805   3.031   9.035   7.698
  605LIG    OD1 3806   3.158   9.045   7.744
  605LIG    OD2 3807   2.974   9.126   7.639
  605LIG      C 3808   3.151   8.783   7.609
  605LIG    OT1 3809   3.199   8.657   7.631
  605LIG    OT2 3810   3.226   8.893   7.580
  606LIG      N 3811   9.827   9.113   3.925
  606LIG     H1 3812   9.755   9.136   3.991
  606LIG     H2 3813   9.813   9.020   3.891
  606LIG     H3 3814   9.916   9.120   3.970
  606LIG     CA 3815   9.824   9.211   3.809
  606LIG     HA 3816   9.735   9.206   3.764
  606LIG     CB 3817   9.844   9.351   3.862
  606LIG    HB1 3818   9.932   9.357   3.910
  606LIG    HB2 3819   9.771   9.374   3.926
  606LIG     CG 3820   9.842   9.450   3.750
  606LIG    OD1 3821   9.962   9.469   3.689
  606LIG    OD2 3822   9.740   9.510   3.716
  606LIG      C 3823   9.936   9.176   3.707
  606LIG    OT1 3824  10.016   9.069   3.736
  606LIG    OT2 3825   9.945   9.255   3.596
  607LIG      N 3826   0.787   6.399   1.187
  607LIG     H1 3827   0.790   6.387   1.286
  607LIG     H2 3828   0.740   6.484   1.164
  607LIG     H3 3829   0.738   6.322   1.146
  607LIG     CA 3830   0.929   6.403   1.132
  607LIG     HA 3831   0.978   6.479   1.173
  607LIG     CB 3832   0.999   6.274   1.167
  607LIG    HB1 3833   0.948   6.196   1.129
  607LIG    HB2 3834   1.002   6.264   1.267
  607LIG     CG 3835   1.138   6.273   1.114
  607LIG    OD1 3836   1.150   6.230   0.986
  607LIG    OD2 3837   1.235   6.309   1.181
  607LIG      C 3838   0.925   6.420   0.977
  607LIG    OT1 3839   0.802   6.428   0.918
  607LIG    OT2 3840   1.045   6.425   0.913
  608LIG      N 3841   0.397   0.188   9.849
  608LIG     H1 3842   0.480   0.180   9.903
  608LIG     H2 3843   0.350   0.099   9.845
  608LIG     H3 3844   0.420   0.218   9.756
  608LIG     CA 3845   0.304   0.290   9.913
  608LIG     HA 3846   0.281   0.261  10.005
  608LIG     CB 3847   0.376   0.423   9.919
  608LIG    HB1 3848   0.401   0.452   9.826
  608LIG    HB2 3849   0.458   0.415   9.974
  608LIG     CG 3850   0.287   0.528   9.980
  608LIG    OD1 3851   0.205   0.590   9.893
  608LIG    OD2 3852   0.290   0.555  10.100
  608LIG      C 3853   0.174   0.304   9.829
  608LIG    OT1 3854   0.164   0.226   9.717
  608LIG    OT2 3855   0.081   0.393   9.873
  609LIG      N 3856   2.093   8.172   8.510
  609LIG     H1 3857   2.090   8.241   8.583
  609LIG     H2 3858   2.174   8.115   8.522
  609LIG     H3 3859   2.096   8.218   8.421
  609LIG     CA 3860   1.968   8.086   8.517
  609LIG     HA 3861   1.964   8.041   8.606
  609LIG     CB 3862   1.846   8.175   8.501
  609LIG    HB1 3863   1.851   8.223   8.413
  609LIG    HB2 3864   1.844   8.243   8.574
  609LIG     CG 3865   1.721   8.093   8.506
  609LIG    OD1 3866   1.683   8.041   8.388
  609LIG    OD2 3867   1.657   8.076   8.610
  609LIG      C 3868   1.970   7.979   8.405
  609LIG    OT1 3869   2.079   7.979   8.321
  609LIG    OT2 3870   1.865   7.894   8.398
  610LIG      N 3871   1.156   4.764   2.637
  610LIG     H1 3872   1.210   4.775   2.721
  610LIG     H2 3873   1.059   4.770   2.658
  610LIG     H3 3874   1.176   4.675   2.596
  610LIG     CA 3875   1.193   4.873   2.538
  610LIG     HA 3876   1.174   4.962   2.579
  610LIG     CB 3877   1.341   4.864   2.508
  610LIG    HB1 3878   1.362   4.773   2.469
  610LIG    HB2 3879   1.394   4.876   2.592
  610LIG     CG 3880   1.381   4.970   2.410
  610LIG    OD1 3881   1.365   4.936   2.280
  610LIG    OD2 3882   1.426   5.079   2.445
  610LIG      C 3883   1.111   4.857   2.407
  610LIG    OT1 3884   1.023   4.753   2.402
  610LIG    OT2 3885   1.133   4.948   2.309
  611LIG      N 3886   8.742   4.029   1.765
  611LIG     H1 3887   8.734   4.038   1.864
  611LIG     H2 3888   8.652   4.015   1.724
  611LIG     H3 3889   8.802   3.952   1.743
  611LIG     CA 3890   8.804   4.156   1.708
  611LIG     HA 3891   8.746   4.234   1.730
  611LIG     CB 3892   8.940   4.177   1.771
  611LIG    HB1 3893   8.998   4.098   1.752
  611LIG    HB2 3894   8.930   4.186   1.870
  611LIG     CG 3895   9.004   4.301   1.716
  611LIG    OD1 3896   9.074   4.282   1.602
  611LIG    OD2 3897   8.995   4.410   1.772
  611LIG      C 3898   8.818   4.144   1.554
  611LIG    OT1 3899   8.776   4.027   1.496
  611LIG    OT2 3900   8.872   4.250   1.488
  612LIG      N 3901   9.736   9.427   5.879
  612LIG     H1 3902   9.782   9.476   5.953
  612LIG     H2 3903   9.801   9.411   5.804
  612LIG     H3 3904   9.659   9.481   5.845
  612LIG     CA 3905   9.684   9.293   5.930
  612LIG     HA 3906   9.761   9.239   5.964
  612LIG     CB 3907   9.588   9.319   6.043
  612LIG    HB1 3908   9.512   9.376   6.010
  612LIG    HB2 3909   9.634   9.367   6.117
  612LIG     CG 3910   9.533   9.189   6.095
  612LIG    OD1 3911   9.425   9.143   6.029
  612LIG    OD2 3912   9.583   9.131   6.191
  612LIG      C 3913   9.613   9.217   5.815
  612LIG    OT1 3914   9.608   9.278   5.693
  612LIG    OT2 3915   9.561   9.095   5.845
  613LIG      N 3916   7.678   1.513   6.072
  613LIG     H1 3917   7.645   1.561   6.153
  613LIG     H2 3918   7.622   1.432   6.054
  613LIG     H3 3919   7.773   1.486   6.086
  613LIG     CA 3920   7.670   1.607   5.952
  613LIG     HA 3921   7.576   1.635   5.938
  613LIG     CB 3922   7.755   1.729   5.980
  613LIG    HB1 3923   7.850   1.701   5.997
  613LIG    HB2 3924   7.720   1.776   6.060
  613LIG     CG 3925   7.751   1.823   5.863
  613LIG    OD1 3926   7.842   1.797   5.767
  613LIG    OD2 3927   7.671   1.916   5.856
  613LIG      C 3928   7.723   1.534   5.825
  613LIG    OT1 3929   7.765   1.405   5.840
  613LIG    OT2 3930   7.722   1.605   5.708
  614LIG      N 3931   5.597   5.665   9.113
  614LIG     H1 3932   5.647   5.589   9.071
  614LIG     H2 3933   5.502   5.664   9.081
  614LIG     H3 3934   5.641   5.751   9.089
  614LIG     CA 3935   5.600   5.649   9.264
  614LIG     HA 3936   5.558   5.562   9.289
  614LIG     CB 3937   5.744   5.648   9.311
  614LIG    HB1 3938   5.789   5.734   9.284
  614LIG    HB2 3939   5.793   5.572   9.269
  614LIG     CG 3940   5.751   5.634   9.460
  614LIG    OD1 3941   5.742   5.750   9.528
  614LIG    OD2 3942   5.764   5.525   9.515
  614LIG      C 3943   5.524   5.766   9.332
  614LIG    OT1 3944   5.468   5.860   9.249
  614LIG    OT2 3945   5.517   5.766   9.468
  615LIG      N 3946   0.093   7.345   8.998
  615LIG     H1 3947   0.176   7.399   9.014
  615LIG     H2 3948   0.051   7.375   8.912
  615LIG     H3 3949   0.029   7.358   9.073
  615LIG     CA 3950   0.129   7.198   8.988
  615LIG     HA 3951   0.194   7.184   8.913
  615LIG     CB 3952   0.194   7.154   9.117
  615LIG    HB1 3953   0.131   7.170   9.193
  615LIG    HB2 3954   0.277   7.208   9.133
  615LIG     CG 3955   0.230   7.009   9.112
  615LIG    OD1 3956   0.131   6.925   9.148
  615LIG    OD2 3957   0.341   6.970   9.078
  615LIG      C 3958   0.001   7.113   8.962
  615LIG    OT1 3959  -0.117   7.181   8.953
  615LIG    OT2 3960   0.017   6.979   8.951
  616LIG      N 3961   7.242   7.697   0.468
  616LIG     H1 3962   7.224   7.785   0.425
  616LIG     H2 3963   7.288   7.636   0.404
  616LIG     H3 3964   7.155   7.655   0.497
  616LIG     CA 3965   7.330   7.718   0.590
  616LIG     HA 3966   7.416   7.760   0.562
  616LIG     CB 3967   7.259   7.810   0.687
  616LIG    HB1 3968   7.171   7.770   0.713
  616LIG    HB2 3969   7.242   7.898   0.643
  616LIG     CG 3970   7.343   7.832   0.809
  616LIG    OD1 3971   7.327   7.739   0.906
  616LIG    OD2 3972   7.419   7.928   0.821
  616LIG      C 3973   7.359   7.581   0.659
  616LIG    OT1 3974   7.303   7.470   0.603
  616LIG    OT2 3975   7.437   7.583   0.771
  617LIG      N 3976   9.601   2.558   9.269
  617LIG     H1 3977   9.515   2.609   9.267
  617LIG     H2 3978   9.609   2.510   9.357
  617LIG     H3 3979   9.677   2.622   9.259
  617LIG     CA 3980   9.604   2.457   9.156
  617LIG     HA 3981   9.528   2.394   9.165
  617LIG     CB 3982   9.591   2.531   9.024
  617LIG    HB1 3983   9.666   2.597   9.015
  617LIG    HB2 3984   9.504   2.580   9.022
  617LIG     CG 3985   9.595   2.435   8.910
  617LIG    OD1 3986   9.719   2.404   8.866
  617LIG    OD2 3987   9.493   2.388   8.859
  617LIG      C 3988   9.738   2.378   9.159
  617LIG    OT1 3989   9.827   2.410   9.258
  617LIG    OT2 3990   9.756   2.283   9.062
  618LIG      N 3991   7.373   9.335   2.477
  618LIG     H1 3992   7.326   9.249   2.455
  618LIG     H2 3993   7.435   9.320   2.554
  618LIG     H3 3994   7.305   9.405   2.500
  618LIG     CA 3995   7.453   9.382   2.356
  618LIG     HA 3996   7.520   9.313   2.331
  618LIG     CB 3997   7.358   9.402   2.240
  618LIG    HB1 3998   7.288   9.470   2.265
  618LIG    HB2 3999   7.312   9.316   2.218
  618LIG     CG 4000   7.432   9.450   2.119
  618LIG    OD1 4001   7.449   9.584   2.112
  618LIG    OD2 4002   7.474   9.373   2.032
  618LIG      C 4003   7.525   9.515   2.389
  618LIG    OT1 4004   7.507   9.567   2.514
  618LIG    OT2 4005   7.601   9.571   2.290
  619LIG      N 4006   0.932   4.504   2.798
  619LIG     H1 4007   1.014   4.474   2.749
  619LIG     H2 4008   0.854   4.450   2.768
  619LIG     H3 4009   0.916   4.601   2.778
  619LIG     CA 4010   0.952   4.487   2.948
  619LIG     HA 4011   0.970   4.391   2.968
  619LIG     CB 4012   1.072   4.569   2.991
  619LIG    HB1 4013   1.057   4.666   2.968
  619LIG    HB2 4014   1.154   4.537   2.943
  619LIG     CG 4015   1.094   4.556   3.138
  619LIG    OD1 4016   1.024   4.642   3.214
  619LIG    OD2 4017   1.172   4.473   3.186
  619LIG      C 4018   0.826   4.535   3.024
  619LIG    OT1 4019   0.722   4.582   2.949
  619LIG    OT2 4020   0.828   4.526   3.160
  620LIG      N 4021   5.301   0.127   5.194
  620LIG     H1 4022   5.247   0.141   5.277
  620LIG     H2 4023   5.374   0.061   5.213
  620LIG     H3 4024   5.341   0.214   5.165
  620LIG     CA 4025   5.212   0.074   5.083
  620LIG     HA 4026   5.172  -0.013   5.111
  620LIG     CB 4027   5.102   0.174   5.056
  620LIG    HB1 4028   5.142   0.262   5.030
  620LIG    HB2 4029   5.048   0.187   5.139
  620LIG     CG 4030   5.013   0.126   4.946
  620LIG    OD1 4031   5.055   0.158   4.821
  620LIG    OD2 4032   4.910   0.063   4.968
  620LIG      C 4033   5.296   0.052   4.954
  620LIG    OT1 4034   5.429   0.083   4.960
  620LIG    OT2 4035   5.230   0.005   4.844
  621LIG      N 4036   2.048   0.069   0.343
  621LIG     H1 4037   2.008   0.000   0.282
  621LIG     H2 4038   2.062   0.029   0.434
  621LIG     H3 4039   1.987   0.148   0.350
  621LIG     CA 4040   2.181   0.115   0.286
  621LIG     HA 4041   2.243   0.036   0.278
  621LIG     CB 4042   2.158   0.173   0.149
  621LIG    HB1 4043   2.095   0.251   0.155
  621LIG    HB2 4044   2.119   0.104   0.089
  621LIG     CG 4045   2.288   0.221   0.090
  621LIG    OD1 4046   2.322   0.347   0.124
  621LIG    OD2 4047   2.356   0.151   0.016
  621LIG      C 4048   2.245   0.222   0.379
  621LIG    OT1 4049   2.175   0.256   0.492
  621LIG    OT2 4050   2.365   0.273   0.342
  622LIG      N 4051   3.337   3.196   0.490
  622LIG     H1 4052   3.426   3.177   0.446
  622LIG     H2 4053   3.342   3.171   0.587
  622LIG     H3 4054   3.266   3.142   0.445
  622LIG     CA 4055   3.304   3.343   0.477
  622LIG     HA 4056   3.375   3.397   0.521
  622LIG     CB 4057   3.299   3.379   0.330
  622LIG    HB1 4058   3.230   3.324   0.284
  622LIG    HB2 4059   3.388   3.362   0.288
  622LIG     CG 4060   3.265   3.524   0.313
  622LIG    OD1 4061   3.133   3.552   0.311
  622LIG    OD2 4062   3.352   3.611   0.300
  622LIG      C 4063   3.167   3.373   0.543
  622LIG    OT1 4064   3.101   3.268   0.600
  622LIG    OT2 4065   3.123   3.502   0.540
  623LIG      N 4066   9.098   7.113   2.101
  623LIG     H1 4067   9.149   7.159   2.174
  623LIG     H2 4068   9.124   7.152   2.012
  623LIG     H3 4069   9.000   7.126   2.116
  623LIG     CA 4070   9.131   6.965   2.102
  623LIG     HA 4071   9.228   6.952   2.088
  623LIG     CB 4072   9.092   6.908   2.237
  623LIG    HB1 4073   8.994   6.923   2.253
  623LIG    HB2 4074   9.144   6.953   2.309
  623LIG     CG 4075   9.121   6.761   2.242
  623LIG    OD1 4076   9.022   6.682   2.194
  623LIG    OD2 4077   9.227   6.716   2.286
  623LIG      C 4078   9.052   6.893   1.990
  623LIG    OT1 4079   8.970   6.970   1.911
  623LIG    OT2 4080   9.070   6.758   1.978
  624LIG      N 4081   8.578   8.782   3.224
  624LIG     H1 4082   8.658   8.722   3.226
  624LIG     H2 4083   8.566   8.817   3.131
  624LIG     H3 4084   8.591   8.858   3.287
  624LIG     CA 4085   8.455   8.703   3.265
  624LIG     HA 4086   8.442   8.626   3.203
  624LIG     CB 4087   8.476   8.650   3.405
  624LIG    HB1 4088   8.492   8.726   3.468
  624LIG    HB2 4089   8.556   8.590   3.407
  624LIG     CG 4090   8.356   8.572   3.450
  624LIG    OD1 4091   8.258   8.647   3.506
  624LIG    OD2 4092   8.347   8.450   3.437
  624LIG      C 4093   8.330   8.795   3.262
  624LIG    OT1 4094   8.348   8.925   3.224
  624LIG    OT2 4095   8.211   8.738   3.296
  625LIG      N 4096   5.309   6.293  -0.009
  625LIG     H1 4097   5.286   6.391  -0.004
  625LIG     H2 4098   5.405   6.283  -0.036
  625LIG     H3 4099   5.250   6.249  -0.077
  625LIG     CA 4100   5.287   6.228   0.126
  625LIG     HA 4101   5.345   6.272   0.194
  625LIG     CB 4102   5.142   6.246   0.165
  625LIG    HB1 4103   5.083   6.204   0.096
  625LIG    HB2 4104   5.120   6.343   0.172
  625LIG     CG 4105   5.116   6.181   0.298
  625LIG    OD1 4106   5.085   6.050   0.292
  625LIG    OD2 4107   5.121   6.243   0.404
  625LIG      C 4108   5.321   6.077   0.118
  625LIG    OT1 4109   5.364   6.028  -0.003
  625LIG    OT2 4110   5.306   6.004   0.232
  626LIG      N 4111   7.812   5.438   1.704
  626LIG     H1 4112   7.716   5.434   1.732
  626LIG     H2 4113   7.822   5.501   1.626
  626LIG     H3 4114   7.844   5.347   1.679
  626LIG     CA 4115   7.896   5.490   1.821
  626LIG     HA 4116   7.863   5.581   1.847
  626LIG     CB 4117   7.879   5.396   1.938
  626LIG    HB1 4118   7.909   5.304   1.912
  626LIG    HB2 4119   7.783   5.392   1.965
  626LIG     CG 4120   7.961   5.443   2.054
  626LIG    OD1 4121   8.089   5.400   2.054
  626LIG    OD2 4122   7.915   5.514   2.143
  626LIG      C 4123   8.045   5.497   1.779
  626LIG    OT1 4124   8.077   5.459   1.652
  626LIG    OT2 4125   8.133   5.542   1.874
  627LIG      N 4126   6.120   2.707   9.475
  627LIG     H1 4127   6.035   2.758   9.489
  627LIG     H2 4128   6.108   2.641   9.401
  627LIG     H3 4129   6.145   2.660   9.559
  627LIG     CA 4130   6.231   2.805   9.438
  627LIG     HA 4131   6.206   2.853   9.354
  627LIG     CB 4132   6.247   2.905   9.550
  627LIG    HB1 4133   6.269   2.858   9.635
  627LIG    HB2 4134   6.161   2.956   9.562
  627LIG     CG 4135   6.356   3.003   9.517
  627LIG    OD1 4136   6.480   2.962   9.553
  627LIG    OD2 4137   6.334   3.111   9.464
  627LIG      C 4138   6.364   2.728   9.416
  627LIG    OT1 4139   6.361   2.592   9.433
  627LIG    OT2 4140   6.473   2.802   9.382
  628LIG      N 4141   3.495   1.763   6.870
  628LIG     H1 4142   3.547   1.683   6.899
  628LIG     H2 4143   3.558   1.840   6.856
  628LIG     H3 4144   3.427   1.787   6.939
  628LIG     CA 4145   3.424   1.733   6.739
  628LIG     HA 4146   3.491   1.708   6.669
  628LIG     CB 4147   3.330   1.616   6.761
  628LIG    HB1 4148   3.264   1.639   6.832
  628LIG    HB2 4149   3.383   1.536   6.789
  628LIG     CG 4150   3.257   1.583   6.634
  628LIG    OD1 4151   3.143   1.654   6.615
  628LIG    OD2 4152   3.297   1.498   6.555
  628LIG      C 4153   3.343   1.857   6.692
  628LIG    OT1 4154   3.349   1.968   6.771
  628LIG    OT2 4155   3.273   1.845   6.576
  629LIG      N 4156   5.957   1.549   1.159
  629LIG     H1 4157   5.957   1.544   1.259
  629LIG     H2 4158   5.876   1.598   1.128
  629LIG     H3 4159   5.957   1.456   1.122
  629LIG     CA 4160   6.082   1.621   1.112
  629LIG     HA 4161   6.083   1.713   1.150
  629LIG     CB 4162   6.204   1.546   1.160
  629LIG    HB1 4163   6.202   1.452   1.125
  629LIG    HB2 4164   6.204   1.543   1.260
  629LIG     CG 4165   6.329   1.614   1.114
  629LIG    OD1 4166   6.371   1.578   0.991
  629LIG    OD2 4167   6.389   1.696   1.183
  629LIG      C 4168   6.083   1.629   0.957
  629LIG    OT1 4169   5.977   1.572   0.891
  629LIG    OT2 4170   6.189   1.691   0.898
  630LIG      N 4171   1.279   5.982   8.178
  630LIG     H1 4172   1.181   5.966   8.193
  630LIG     H2 4173   1.324   5.896   8.157
  630LIG     H3 4174   1.319   6.022   8.261
  630LIG     CA 4175   1.297   6.079   8.062
  630LIG     HA 4176   1.256   6.040   7.980
  630LIG     CB 4177   1.227   6.209   8.095
  630LIG    HB1 4178   1.265   6.247   8.180
  630LIG    HB2 4179   1.130   6.192   8.109
  630LIG     CG 4180   1.244   6.307   7.984
  630LIG    OD1 4181   1.357   6.381   7.990
  630LIG    OD2 4182   1.161   6.320   7.894
  630LIG      C 4183   1.448   6.105   8.038
  630LIG    OT1 4184   1.537   6.041   8.121
  630LIG    OT2 4185   1.481   6.190   7.937
  631LIG      N 4186   8.660   1.135   6.058
  631LIG     H1 4187   8.700   1.218   6.020
  631LIG     H2 4188   8.732   1.072   6.085
  631LIG     H3 4189   8.601   1.091   5.990
  631LIG     CA 4190   8.576   1.171   6.180
  631LIG     HA 4191   8.634   1.215   6.248
  631LIG     CB 4192   8.467   1.267   6.138
  631LIG    HB1 4193   8.410   1.225   6.067
  631LIG    HB2 4194   8.508   1.350   6.100
  631LIG     CG 4195   8.382   1.304   6.255
  631LIG    OD1 4196   8.279   1.219   6.279
  631LIG    OD2 4197   8.402   1.404   6.323
  631LIG      C 4198   8.512   1.043   6.240
  631LIG    OT1 4199   8.540   0.924   6.178
  631LIG    OT2 4200   8.434   1.058   6.350
  632LIG      N 4201   4.057   0.536   2.763
  632LIG     H1 4202   4.034   0.441   2.785
  632LIG     H2 4203   4.155   0.542   2.741
  632LIG     H3 4204   4.036   0.595   2.841
  632LIG     CA 4205   3.976   0.581   2.642
  632LIG     HA 4206   3.996   0.522   2.564
  632LIG     CB 4207   3.829   0.570   2.676
  632LIG    HB1 4208   3.808   0.627   2.756
  632LIG    HB2 4209   3.807   0.475   2.697
  632LIG     CG 4210   3.745   0.615   2.560
  632LIG    OD1 4211   3.721   0.748   2.556
  632LIG    OD2 4212   3.701   0.537   2.476
  632LIG      C 4213   4.011   0.728   2.607
  632LIG    OT1 4214   4.104   0.791   2.685
  632LIG    OT2 4215   3.946   0.784   2.501
  633LIG      N 4216   0.006   5.547   7.884
  633LIG     H1 4217  -0.050   5.545   7.801
  633LIG     H2 4218  -0.051   5.577   7.961
  633LIG     H3 4219   0.082   5.611   7.872
  633LIG     CA 4220   0.061   5.408   7.913
  633LIG     HA 4221  -0.015   5.345   7.924
  633LIG     CB 4222   0.145   5.364   7.795
  633LIG    HB1 4223   0.220   5.429   7.781
  633LIG    HB2 4224   0.089   5.361   7.713
  633LIG     CG 4225   0.202   5.228   7.820
  633LIG    OD1 4226   0.319   5.227   7.888
  633LIG    OD2 4227   0.147   5.125   7.781
  633LIG      C 4228   0.147   5.411   8.041
  633LIG    OT1 4229   0.160   5.531   8.106
  633LIG    OT2 4230   0.204   5.293   8.080
  634LIG      N 4231   7.973   7.374   1.936
  634LIG     H1 4232   8.059   7.363   1.987
  634LIG     H2 4233   7.900   7.327   1.983
  634LIG     H3 4234   7.984   7.337   1.844
  634LIG     CA 4235   7.940   7.522   1.925
  634LIG     HA 4236   7.930   7.560   2.017
  634LIG     CB 4237   8.053   7.593   1.855
  634LIG    HB1 4238   8.066   7.554   1.763
  634LIG    HB2 4239   8.137   7.582   1.906
  634LIG     CG 4240   8.023   7.739   1.841
  634LIG    OD1 4241   7.950   7.772   1.732
  634LIG    OD2 4242   8.062   7.823   1.923
  634LIG      C 4243   7.808   7.541   1.846
  634LIG    OT1 4244   7.746   7.428   1.800
  634LIG    OT2 4245   7.764   7.669   1.828
  635LIG      N 4246   1.557   2.999   9.712
  635LIG     H1 4247   1.536   2.904   9.737
  635LIG     H2 4248   1.508   3.023   9.628
  635LIG     H3 4249   1.656   3.008   9.697
  635LIG     CA 4250   1.515   3.092   9.824
  635LIG     HA 4251   1.417   3.083   9.839
  635LIG     CB 4252   1.589   3.053   9.950
  635LIG    HB1 4253   1.688   3.060   9.934
  635LIG    HB2 4254   1.566   2.959   9.975
  635LIG     CG 4255   1.551   3.144  10.063
  635LIG    OD1 4256   1.623   3.258  10.071
  635LIG    OD2 4257   1.461   3.116  10.143
  635LIG      C 4258   1.548   3.239   9.786
  635LIG    OT1 4259   1.607   3.260   9.665
  635LIG    OT2 4260   1.516   3.335   9.877
  636LIG      N 4261   9.288   4.915   1.323
  636LIG     H1 4262   9.386   4.899   1.340
  636LIG     H2 4263   9.269   4.909   1.225
  636LIG     H3 4264   9.263   5.006   1.357
  636LIG     CA 4265   9.207   4.810   1.397
  636LIG     HA 4266   9.232   4.719   1.365
  636LIG     CB 4267   9.238   4.820   1.545
  636LIG    HB1 4268   9.215   4.912   1.578
  636LIG    HB2 4269   9.335   4.803   1.560
  636LIG     CG 4270   9.158   4.719   1.622
  636LIG    OD1 4271   9.034   4.760   1.658
  636LIG    OD2 4272   9.202   4.607   1.650
  636LIG      C 4273   9.055   4.834   1.373
  636LIG    OT1 4274   9.021   4.940   1.294
  636LIG    OT2 4275   8.968   4.748   1.433
  637LIG      N 4276   7.987   1.478   5.766
  637LIG     H1 4277   7.975   1.406   5.835
  637LIG     H2 4278   8.083   1.506   5.764
  637LIG     H3 4279   7.929   1.556   5.789
  637LIG     CA 4280   7.947   1.424   5.629
  637LIG     HA 4281   8.004   1.345   5.607
  637LIG     CB 4282   7.802   1.381   5.634
  637LIG    HB1 4283   7.745   1.459   5.660
  637LIG    HB2 4284   7.791   1.309   5.703
  637LIG     CG 4285   7.759   1.329   5.501
  637LIG    OD1 4286   7.714   1.423   5.415
  637LIG    OD2 4287   7.762   1.209   5.472
  637LIG      C 4288   7.965   1.534   5.522
  637LIG    OT1 4289   8.012   1.656   5.564
  637LIG    OT2 4290   7.934   1.502   5.393
  638LIG      N 4291   6.325   0.630   1.359
  638LIG     H1 4292   6.369   0.640   1.269
  638LIG     H2 4293   6.293   0.536   1.370
  638LIG     H3 4294   6.248   0.693   1.366
  638LIG     CA 4295   6.426   0.662   1.468
  638LIG     HA 4296   6.504   0.599   1.461
  638LIG     CB 4297   6.476   0.804   1.449
  638LIG    HB1 4298   6.398   0.867   1.453
  638LIG    HB2 4299   6.519   0.812   1.360
  638LIG     CG 4300   6.574   0.839   1.556
  638LIG    OD1 4301   6.520   0.887   1.670
  638LIG    OD2 4302   6.696   0.827   1.540
  638LIG      C 4303   6.360   0.647   1.608
  638LIG    OT1 4304   6.228   0.610   1.611
  638LIG    OT2 4305   6.438   0.673   1.716
  639LIG      N 4306   9.868   9.339   8.367
  639LIG     H1 4307   9.956   9.294   8.384
  639LIG     H2 4308   9.859   9.359   8.269
  639LIG     H3 4309   9.863   9.424   8.419
  639LIG     CA 4310   9.755   9.247   8.410
  639LIG     HA 4311   9.760   9.162   8.359
  639LIG     CB 4312   9.771   9.216   8.558
  639LIG    HB1 4313   9.769   9.302   8.610
  639LIG    HB2 4314   9.858   9.171   8.574
  639LIG     CG 4315   9.660   9.127   8.605
  639LIG    OD1 4316   9.548   9.191   8.643
  639LIG    OD2 4317   9.672   9.005   8.609
  639LIG      C 4318   9.618   9.315   8.385
  639LIG    OT1 4319   9.620   9.441   8.330
  639LIG    OT2 4320   9.507   9.245   8.419
  640LIG      N 4321   0.651   8.539   8.980
  640LIG     H1 4322   0.745   8.528   9.011
  640LIG     H2 4323   0.648   8.536   8.880
  640LIG     H3 4324   0.616   8.627   9.012
  640LIG     CA 4325   0.565   8.428   9.037
  640LIG     HA 4326   0.600   8.340   9.006
  640LIG     CB 4327   0.572   8.433   9.188
  640LIG    HB1 4328   0.540   8.522   9.220
  640LIG    HB2 4329   0.666   8.420   9.218
  640LIG     CG 4330   0.487   8.325   9.248
  640LIG    OD1 4331   0.357   8.358   9.265
  640LIG    OD2 4332   0.532   8.215   9.280
  640LIG      C 4333   0.418   8.445   8.990
  640LIG    OT1 4334   0.390   8.552   8.910
  640LIG    OT2 4335   0.328   8.353   9.033
  641LIG      N 4336   7.950   0.688   6.258
  641LIG     H1 4337   7.963   0.726   6.350
  641LIG     H2 4338   7.896   0.751   6.203
  641LIG     H3 4339   7.903   0.600   6.266
  641LIG     CA 4340   8.085   0.666   6.193
  641LIG     HA 4341   8.134   0.753   6.186
  641LIG     CB 4342   8.167   0.571   6.278
  641LIG    HB1 4343   8.118   0.484   6.288
  641LIG    HB2 4344   8.180   0.611   6.369
  641LIG     CG 4345   8.300   0.546   6.216
  641LIG    OD1 4346   8.303   0.446   6.125
  641LIG    OD2 4347   8.401   0.611   6.246
  641LIG      C 4348   8.066   0.606   6.051
  641LIG    OT1 4349   7.938   0.583   6.009
  641LIG    OT2 4350   8.179   0.580   5.979
  642LIG      N 4351   7.236   1.460   4.892
  642LIG     H1 4352   7.247   1.376   4.945
  642LIG     H2 4353   7.292   1.532   4.932
  642LIG     H3 4354   7.140   1.487   4.893
  642LIG     CA 4355   7.280   1.436   4.749
  642LIG     HA 4356   7.375   1.408   4.747
  642LIG     CB 4357   7.195   1.325   4.690
  642LIG    HB1 4358   7.098   1.351   4.693
  642LIG    HB2 4359   7.208   1.241   4.743
  642LIG     CG 4360   7.234   1.299   4.548
  642LIG    OD1 4361   7.172   1.378   4.457
  642LIG    OD2 4362   7.316   1.212   4.516
  642LIG      C 4363   7.262   1.565   4.665
  642LIG    OT1 4364   7.213   1.675   4.730
  642LIG    OT2 4365   7.297   1.560   4.534
  643LIG      N 4366   1.773   1.018   1.597
  643LIG     H1 4367   1.856   0.972   1.565
  643LIG     H2 4368   1.718   1.047   1.519
  643LIG     H3 4369   1.798   1.098   1.652
  643LIG     CA 4370   1.692   0.923   1.684
  643LIG     HA 4371   1.667   0.842   1.630
  643LIG     CB 4372   1.778   0.879   1.801
  643LIG    HB1 4373   1.805   0.960   1.854
  643LIG    HB2 4374   1.859   0.833   1.768
  643LIG     CG 4375   1.701   0.786   1.890
  643LIG    OD1 4376   1.625   0.847   1.984
  643LIG    OD2 4377   1.708   0.664   1.879
  643LIG      C 4378   1.564   0.993   1.735
  643LIG    OT1 4379   1.544   1.123   1.697
  643LIG    OT2 4380   1.481   0.920   1.815
  644LIG      N 4381   1.682   6.383   2.067
  644LIG     H1 4382   1.707   6.430   2.152
  644LIG     H2 4383   1.765   6.355   2.018
  644LIG     H3 4384   1.628   6.444   2.009
  644LIG     CA 4385   1.599   6.259   2.100
  644LIG     HA 4386   1.653   6.198   2.158
  644LIG     CB 4387   1.475   6.302   2.174
  644LIG    HB1 4388   1.422   6.366   2.118
  644LIG    HB2 4389   1.501   6.348   2.259
  644LIG     CG 4390   1.390   6.183   2.207
  644LIG    OD1 4391   1.304   6.146   2.110
  644LIG    OD2 4392   1.398   6.125   2.315
  644LIG      C 4393   1.560   6.186   1.969
  644LIG    OT1 4394   1.603   6.240   1.851
  644LIG    OT2 4395   1.485   6.073   1.982
  645LIG      N 4396   7.198   9.576   7.501
  645LIG     H1 4397   7.262   9.511   7.542
  645LIG     H2 4398   7.217   9.585   7.403
  645LIG     H3 4399   7.208   9.665   7.545
  645LIG     CA 4400   7.056   9.526   7.520
  645LIG     HA 4401   7.046   9.437   7.476
  645LIG     CB 4402   7.029   9.512   7.668
  645LIG    HB1 4403   7.041   9.601   7.713
  645LIG    HB2 4404   7.092   9.446   7.708
  645LIG     CG 4405   6.889   9.464   7.691
  645LIG    OD1 4406   6.795   9.561   7.696
  645LIG    OD2 4407   6.861   9.345   7.705
  645LIG      C 4408   6.955   9.626   7.457
  645LIG    OT1 4409   7.007   9.738   7.397
  645LIG    OT2 4410   6.823   9.595   7.466
  646LIG      N 4411   1.140   3.686   6.125
  646LIG     H1 4412   1.046   3.721   6.114
  646LIG     H2 4413   1.154   3.659   6.221
  646LIG     H3 4414   1.205   3.757   6.100
  646LIG     CA 4415   1.159   3.565   6.035
  646LIG     HA 4416   1.093   3.494   6.060
  646LIG     CB 4417   1.135   3.606   5.892
  646LIG    HB1 4418   1.199   3.679   5.867
  646LIG    HB2 4419   1.042   3.640   5.882
  646LIG     CG 4420   1.155   3.489   5.800
  646LIG    OD1 4421   1.283   3.470   5.760
  646LIG    OD2 4422   1.062   3.418   5.763
  646LIG      C 4423   1.303   3.509   6.051
  646LIG    OT1 4424   1.386   3.575   6.139
  646LIG    OT2 4425   1.337   3.400   5.977
  647LIG      N 4426   0.575   4.692   6.032
  647LIG     H1 4427   0.647   4.646   6.084
  647LIG     H2 4428   0.612   4.723   5.944
  647LIG     H3 4429   0.541   4.770   6.083
  647LIG     CA 4430   0.461   4.594   6.007
  647LIG     HA 4431   0.495   4.515   5.956
  647LIG     CB 4432   0.408   4.547   6.140
  647LIG    HB1 4433   0.376   4.626   6.193
  647LIG    HB2 4434   0.480   4.501   6.191
  647LIG     CG 4435   0.294   4.451   6.120
  647LIG    OD1 4436   0.173   4.510   6.106
  647LIG    OD2 4437   0.310   4.329   6.117
  647LIG      C 4438   0.348   4.664   5.926
  647LIG    OT1 4439   0.368   4.795   5.892
  647LIG    OT2 4440   0.239   4.589   5.896
  648LIG      N 4441   4.872   8.833   9.739
  648LIG     H1 4442   4.897   8.929   9.724
  648LIG     H2 4443   4.921   8.798   9.818
  648LIG     H3 4444   4.896   8.780   9.658
  648LIG     CA 4445   4.722   8.823   9.763
  648LIG     HA 4446   4.698   8.876   9.843
  648LIG     CB 4447   4.649   8.878   9.642
  648LIG    HB1 4448   4.676   8.826   9.560
  648LIG    HB2 4449   4.674   8.973   9.629
  648LIG     CG 4450   4.501   8.868   9.662
  648LIG    OD1 4451   4.447   8.750   9.625
  648LIG    OD2 4452   4.434   8.961   9.707
  648LIG      C 4453   4.682   8.674   9.785
  648LIG    OT1 4454   4.783   8.581   9.780
  648LIG    OT2 4455   4.551   8.648   9.808
  649LIG      N 4456   4.276   8.464   9.287
  649LIG     H1 4457   4.184   8.487   9.254
  649LIG     H2 4458   4.277   8.469   9.387
  649LIG     H3 4459   4.342   8.530   9.250
  649LIG     CA 4460   4.314   8.324   9.242
  649LIG     HA 4461   4.248   8.259   9.279
  649LIG     CB 4462   4.310   8.319   9.091
  649LIG    HB1 4463   4.374   8.387   9.053
  649LIG    HB2 4464   4.218   8.340   9.059
  649LIG     CG 4465   4.348   8.183   9.043
  649LIG    OD1 4466   4.481   8.163   9.028
  649LIG    OD2 4467   4.265   8.096   9.018
  649LIG      C 4468   4.456   8.289   9.293
  649LIG    OT1 4469   4.522   8.384   9.366
  649LIG    OT2 4470   4.505   8.166   9.260
  650LIG      N 4471   5.680   8.069   7.104
  650LIG     H1 4472   5.672   7.987   7.161
  650LIG     H2 4473   5.770   8.070   7.059
  650LIG     H3 4474   5.669   8.151   7.160
  650LIG     CA 4475   5.571   8.067   6.998
  650LIG     HA 4476   5.580   7.985   6.942
  650LIG     CB 4477   5.436   8.064   7.067
  650LIG    HB1 4478   5.427   8.145   7.126
  650LIG    HB2 4479   5.429   7.982   7.123
  650LIG     CG 4480   5.326   8.063   6.966
  650LIG    OD1 4481   5.287   8.186   6.923
  650LIG    OD2 4482   5.273   7.959   6.925
  650LIG      C 4483   5.582   8.193   6.908
  650LIG    OT1 4484   5.682   8.281   6.936
  650LIG    OT2 4485   5.490   8.206   6.808
  651LIG      N 4486   5.835   0.334   2.615
  651LIG     H1 4487   5.838   0.279   2.531
  651LIG     H2 4488   5.879   0.284   2.689
  651LIG     H3 4489   5.740   0.353   2.639
  651LIG     CA 4490   5.908   0.465   2.591
  651LIG     HA 4491   6.003   0.447   2.566
  651LIG     CB 4492   5.841   0.539   2.478
  651LIG    HB1 4493   5.744   0.556   2.501
  651LIG    HB2 4494   5.845   0.484   2.395
  651LIG     CG 4495   5.909   0.670   2.453
  651LIG    OD1 4496   5.864   0.773   2.529
  651LIG    OD2 4497   5.998   0.683   2.369
  651LIG      C 4498   5.904   0.552   2.720
  651LIG    OT1 4499   5.839   0.499   2.829
  651LIG    OT2 4500   5.965   0.673   2.715
  652LIG      N 4501  -0.018   3.389   7.675
  652LIG     H1 4502  -0.008   3.424   7.768
  652LIG     H2 4503  -0.095   3.435   7.630
  652LIG     H3 4504  -0.035   3.290   7.679
  652LIG     CA 4505   0.109   3.415   7.596
  652LIG     HA 4506   0.127   3.513   7.593
  652LIG     CB 4507   0.225   3.346   7.666
  652LIG    HB1 4508   0.206   3.248   7.673
  652LIG    HB2 4509   0.235   3.383   7.758
  652LIG     CG 4510   0.352   3.368   7.591
  652LIG    OD1 4511   0.375   3.279   7.492
  652LIG    OD2 4512   0.430   3.460   7.617
  652LIG      C 4513   0.094   3.359   7.452
  652LIG    OT1 4514  -0.024   3.299   7.420
  652LIG    OT2 4515   0.201   3.374   7.369
  653LIG      N 4516   6.642   1.163   6.476
  653LIG     H1 4517   6.651   1.158   6.576
  653LIG     H2 4518   6.646   1.071   6.437
  653LIG     H3 4519   6.716   1.219   6.438
  653LIG     CA 4520   6.509   1.228   6.441
  653LIG     HA 4521   6.434   1.173   6.479
  653LIG     CB 4522   6.504   1.367   6.501
  653LIG    HB1 4523   6.580   1.421   6.465
  653LIG    HB2 4524   6.513   1.361   6.600
  653LIG     CG 4525   6.375   1.434   6.467
  653LIG    OD1 4526   6.374   1.499   6.348
  653LIG    OD2 4527   6.277   1.431   6.542
  653LIG      C 4528   6.494   1.237   6.286
  653LIG    OT1 4529   6.596   1.188   6.211
  653LIG    OT2 4530   6.379   1.292   6.239
  654LIG      N 4531   9.939   0.025   1.137
  654LIG     H1 4532   9.925   0.082   1.056
  654LIG     H2 4533   9.949  -0.070   1.110
  654LIG     H3 4534   9.860   0.034   1.198
  654LIG     CA 4535  10.063   0.071   1.211
  654LIG     HA 4536  10.142   0.063   1.150
  654LIG     CB 4537  10.046   0.216   1.251
  654LIG    HB1 4538   9.965   0.225   1.310
  654LIG    HB2 4539  10.033   0.272   1.170
  654LIG     CG 4540  10.167   0.264   1.325
  654LIG    OD1 4541  10.165   0.240   1.458
  654LIG    OD2 4542  10.260   0.322   1.269
  654LIG      C 4543  10.086  -0.016   1.337
  654LIG    OT1 4544   9.995  -0.116   1.361
  654LIG    OT2 4545  10.194   0.013   1.414
  655LIG      N 4546   5.235   1.241   7.657
  655LIG     H1 4547   5.191   1.328   7.635
  655LIG     H2 4548   5.202   1.208   7.745
  655LIG     H3 4549   5.334   1.254   7.661
  655LIG     CA 4550   5.202   1.139   7.549
  655LIG     HA 4551   5.103   1.127   7.545
  655LIG     CB 4552   5.251   1.191   7.416
  655LIG    HB1 4553   5.350   1.206   7.420
  655LIG    HB2 4554   5.206   1.277   7.395
  655LIG     CG 4555   5.222   1.092   7.307
  655LIG    OD1 4556   5.315   0.996   7.290
  655LIG    OD2 4557   5.120   1.099   7.238
  655LIG      C 4558   5.270   1.003   7.582
  655LIG    OT1 4559   5.345   0.997   7.696
  655LIG    OT2 4560   5.250   0.901   7.494
  656LIG      N 4561   0.152   8.274   2.074
  656LIG     H1 4562   0.074   8.314   2.028
  656LIG     H2 4563   0.145   8.289   2.173
  656LIG     H3 4564   0.237   8.316   2.040
  656LIG     CA 4565   0.156   8.124   2.047
  656LIG     HA 4566   0.072   8.082   2.080
  656LIG     CB 4567   0.166   8.103   1.897
  656LIG    HB1 4568   0.249   8.147   1.862
  656LIG    HB2 4569   0.087   8.142   1.852
  656LIG     CG 4570   0.172   7.956   1.866
  656LIG    OD1 4571   0.295   7.902   1.870
  656LIG    OD2 4572   0.071   7.891   1.839
  656LIG      C 4573   0.278   8.060   2.118
  656LIG    OT1 4574   0.359   8.144   2.190
  656LIG    OT2 4575   0.296   7.926   2.103
  657LIG      N 4576   0.074   0.039   4.268
  657LIG     H1 4577   0.082  -0.054   4.230
  657LIG     H2 4578   0.089   0.035   4.367
  657LIG     H3 4579  -0.017   0.075   4.249
  657LIG     CA 4580   0.178   0.129   4.205
  657LIG     HA 4581   0.269   0.094   4.223
  657LIG     CB 4582   0.156   0.132   4.055
  657LIG    HB1 4583   0.063   0.166   4.036
  657LIG    HB2 4584   0.165   0.040   4.018
  657LIG     CG 4585   0.256   0.222   3.989
  657LIG    OD1 4586   0.220   0.352   3.984
  657LIG    OD2 4587   0.361   0.180   3.942
  657LIG      C 4588   0.166   0.273   4.263
  657LIG    OT1 4589   0.069   0.294   4.357
  657LIG    OT2 4590   0.253   0.367   4.215
  658LIG      N 4591   6.760   9.859   2.647
  658LIG     H1 4592   6.693   9.925   2.683
  658LIG     H2 4593   6.712   9.784   2.603
  658LIG     H3 4594   6.816   9.825   2.723
  658LIG     CA 4595   6.851   9.929   2.547
  658LIG     HA 4596   6.795   9.964   2.472
  658LIG     CB 4597   6.921  10.044   2.615
  658LIG    HB1 4598   6.974  10.009   2.693
  658LIG    HB2 4599   6.853  10.109   2.649
  658LIG     CG 4600   7.012  10.114   2.519
  658LIG    OD1 4601   7.136  10.061   2.509
  658LIG    OD2 4602   6.977  10.213   2.455
  658LIG      C 4603   6.955   9.828   2.491
  658LIG    OT1 4604   6.950   9.700   2.539
  658LIG    OT2 4605   7.044   9.876   2.400
  659LIG      N 4606   0.920   4.402   5.597
  659LIG     H1 4607   0.959   4.413   5.689
  659LIG     H2 4608   0.836   4.347   5.603
  659LIG     H3 4609   0.986   4.357   5.538
  659LIG     CA 4610   0.886   4.539   5.540
  659LIG     HA 4611   0.821   4.585   5.600
  659LIG     CB 4612   1.013   4.622   5.534
  659LIG    HB1 4613   1.081   4.575   5.476
  659LIG    HB2 4614   1.051   4.633   5.625
  659LIG     CG 4615   0.984   4.757   5.476
  659LIG    OD1 4616   0.988   4.763   5.341
  659LIG    OD2 4617   0.960   4.855   5.547
  659LIG      C 4618   0.826   4.524   5.398
  659LIG    OT1 4619   0.813   4.397   5.349
  659LIG    OT2 4620   0.791   4.638   5.333
  660LIG      N 4621   2.056   0.341   4.788
  660LIG     H1 4622   1.965   0.355   4.826
  660LIG     H2 4623   2.122   0.327   4.862
  660LIG     H3 4624   2.082   0.421   4.734
  660LIG     CA 4625   2.055   0.218   4.699
  660LIG     HA 4626   2.028   0.138   4.752
  660LIG     CB 4627   1.954   0.239   4.588
  660LIG    HB1 4628   1.979   0.321   4.535
  660LIG    HB2 4629   1.863   0.253   4.627
  660LIG     CG 4630   1.951   0.121   4.497
  660LIG    OD1 4631   2.042   0.123   4.397
  660LIG    OD2 4632   1.870   0.028   4.511
  660LIG      C 4633   2.196   0.195   4.638
  660LIG    OT1 4634   2.294   0.284   4.672
  660LIG    OT2 4635   2.211   0.088   4.555
  661LIG      N 4636   2.795   5.587   9.620
  661LIG     H1 4637   2.802   5.506   9.562
  661LIG     H2 4638   2.716   5.578   9.680
  661LIG     H3 4639   2.784   5.668   9.562
  661LIG     CA 4640   2.921   5.602   9.703
  661LIG     HA 4641   2.933   5.521   9.760
  661LIG     CB 4642   3.040   5.615   9.610
  661LIG    HB1 4643   3.027   5.694   9.550
  661LIG    HB2 4644   3.047   5.533   9.554
  661LIG     CG 4645   3.166   5.631   9.689
  661LIG    OD1 4646   3.195   5.759   9.723
  661LIG    OD2 4647   3.238   5.536   9.719
  661LIG      C 4648   2.911   5.729   9.793
  661LIG    OT1 4649   2.796   5.802   9.783
  661LIG    OT2 4650   3.017   5.756   9.874
  662LIG      N 4651   1.785   8.281   0.320
  662LIG     H1 4652   1.746   8.226   0.246
  662LIG     H2 4653   1.711   8.324   0.372
  662LIG     H3 4654   1.846   8.351   0.282
  662LIG     CA 4655   1.866   8.191   0.413
  662LIG     HA 4656   1.806   8.120   0.451
  662LIG     CB 4657   1.976   8.125   0.333
  662LIG    HB1 4658   2.035   8.195   0.292
  662LIG    HB2 4659   1.936   8.070   0.260
  662LIG     CG 4660   2.058   8.036   0.422
  662LIG    OD1 4661   2.159   8.099   0.486
  662LIG    OD2 4662   2.036   7.916   0.434
  662LIG      C 4663   1.927   8.275   0.528
  662LIG    OT1 4664   1.900   8.409   0.529
  662LIG    OT2 4665   2.002   8.208   0.620
  663LIG      N 4666   9.842   9.590   2.898
  663LIG     H1 4667   9.797   9.501   2.889
  663LIG     H2 4668   9.777   9.663   2.877
  663LIG     H3 4669   9.920   9.595   2.835
  663LIG     CA 4670   9.893   9.608   3.040
  663LIG     HA 4671   9.817   9.602   3.104
  663LIG     CB 4672   9.991   9.496   3.071
  663LIG    HB1 4673  10.067   9.499   3.006
  663LIG    HB2 4674   9.945   9.408   3.063
  663LIG     CG 4675  10.045   9.511   3.210
  663LIG    OD1 4676  10.152   9.591   3.221
  663LIG    OD2 4677   9.994   9.453   3.307
  663LIG      C 4678   9.964   9.745   3.055
  663LIG    OT1 4679   9.969   9.825   2.944
  663LIG    OT2 4680  10.015   9.776   3.177
  664LIG      N 4681   6.839   0.103   8.546
  664LIG     H1 4682   6.769   0.051   8.596
  664LIG     H2 4683   6.865   0.052   8.463
  664LIG     H3 4684   6.919   0.116   8.604
  664LIG     CA 4685   6.782   0.238   8.506
  664LIG     HA 4686   6.702   0.225   8.449
  664LIG     CB 4687   6.742   0.312   8.632
  664LIG    HB1 4688   6.821   0.323   8.692
  664LIG    HB2 4689   6.672   0.260   8.681
  664LIG     CG 4690   6.687   0.447   8.597
  664LIG    OD1 4691   6.780   0.545   8.585
  664LIG    OD2 4692   6.566   0.468   8.583
  664LIG      C 4693   6.889   0.320   8.429
  664LIG    OT1 4694   7.011   0.261   8.410
  664LIG    OT2 4695   6.854   0.445   8.387
  665LIG      N 4696   0.206   8.913   1.120
  665LIG     H1 4697   0.270   8.955   1.184
  665LIG     H2 4698   0.179   8.823   1.154
  665LIG     H3 4699   0.250   8.903   1.030
  665LIG     CA 4700   0.083   9.001   1.105
  665LIG     HA 4701   0.039   9.011   1.194
  665LIG     CB 4702   0.125   9.137   1.054
  665LIG    HB1 4703   0.172   9.127   0.966
  665LIG    HB2 4704   0.188   9.178   1.120
  665LIG     CG 4705   0.006   9.226   1.037
  665LIG    OD1 4706  -0.056   9.215   0.918
  665LIG    OD2 4707  -0.031   9.304   1.125
  665LIG      C 4708  -0.017   8.936   1.005
  665LIG    OT1 4709   0.020   8.817   0.949
  665LIG    OT2 4710  -0.133   9.003   0.981
  666LIG      N 4711   5.069   9.413   6.037
  666LIG     H1 4712   5.148   9.464   6.004
  666LIG     H2 4713   5.066   9.417   6.137
  666LIG     H3 4714   5.077   9.317   6.007
  666LIG     CA 4715   4.942   9.472   5.980
  666LIG     HA 4716   4.934   9.567   6.009
  666LIG     CB 4717   4.949   9.467   5.829
  666LIG    HB1 4718   4.959   9.371   5.799
  666LIG    HB2 4719   5.027   9.519   5.797
  666LIG     CG 4720   4.824   9.524   5.769
  666LIG    OD1 4721   4.722   9.435   5.755
  666LIG    OD2 4722   4.815   9.641   5.734
  666LIG      C 4723   4.818   9.392   6.030
  666LIG    OT1 4724   4.842   9.286   6.114
  666LIG    OT2 4725   4.696   9.434   5.987
  667LIG      N 4726   9.157   2.400   2.431
  667LIG     H1 4727   9.115   2.440   2.513
  667LIG     H2 4728   9.252   2.377   2.450
  667LIG     H3 4729   9.153   2.466   2.356
  667LIG     CA 4730   9.081   2.275   2.391
  667LIG     HA 4731   9.084   2.209   2.465
  667LIG     CB 4732   8.937   2.312   2.364
  667LIG    HB1 4733   8.932   2.380   2.291
  667LIG    HB2 4734   8.896   2.350   2.446
  667LIG     CG 4735   8.859   2.191   2.323
  667LIG    OD1 4736   8.863   2.162   2.190
  667LIG    OD2 4737   8.795   2.123   2.403
  667LIG      C 4738   9.144   2.213   2.263
  667LIG    OT1 4739   9.253   2.277   2.210
  667LIG    OT2 4740   9.087   2.099   2.215
  668LIG      N 4741   0.385   7.573   1.831
  668LIG     H1 4742   0.381   7.672   1.816
  668LIG     H2 4743   0.481   7.543   1.828
  668LIG     H3 4744   0.333   7.527   1.759
  668LIG     CA 4745   0.325   7.540   1.966
  668LIG     HA 4746   0.376   7.586   2.038
  668LIG     CB 4747   0.181   7.588   1.969
  668LIG    HB1 4748   0.130   7.543   1.895
  668LIG    HB2 4749   0.179   7.686   1.955
  668LIG     CG 4750   0.118   7.555   2.100
  668LIG    OD1 4751   0.064   7.431   2.108
  668LIG    OD2 4752   0.115   7.635   2.194
  668LIG      C 4753   0.330   7.386   1.990
  668LIG    OT1 4754   0.385   7.309   1.891
  668LIG    OT2 4755   0.279   7.340   2.108
  669LIG      N 4756   7.505   6.719   0.861
  669LIG     H1 4757   7.567   6.746   0.934
  669LIG     H2 4758   7.451   6.798   0.832
  669LIG     H3 4759   7.443   6.647   0.895
  669LIG     CA 4760   7.585   6.665   0.743
  669LIG     HA 4761   7.647   6.735   0.710
  669LIG     CB 4762   7.666   6.546   0.790
  669LIG    HB1 4763   7.604   6.475   0.826
  669LIG    HB2 4764   7.729   6.574   0.862
  669LIG     CG 4765   7.745   6.489   0.676
  669LIG    OD1 4766   7.679   6.398   0.601
  669LIG    OD2 4767   7.861   6.522   0.654
  669LIG      C 4768   7.488   6.622   0.629
  669LIG    OT1 4769   7.354   6.638   0.651
  669LIG    OT2 4770   7.545   6.571   0.516
  670LIG      N 4771   0.554   9.394   4.830
  670LIG     H1 4772   0.610   9.453   4.887
  670LIG     H2 4773   0.608   9.360   4.753
  670LIG     H3 4774   0.475   9.445   4.796
  670LIG     CA 4775   0.504   9.276   4.913
  670LIG     HA 4776   0.582   9.225   4.948
  670LIG     CB 4777   0.424   9.329   5.030
  670LIG    HB1 4778   0.347   9.383   4.996
  670LIG    HB2 4779   0.482   9.388   5.087
  670LIG     CG 4780   0.372   9.216   5.113
  670LIG    OD1 4781   0.255   9.164   5.072
  670LIG    OD2 4782   0.432   9.174   5.212
  670LIG      C 4783   0.415   9.183   4.826
  670LIG    OT1 4784   0.397   9.220   4.695
  670LIG    OT2 4785   0.363   9.073   4.886
  671LIG      N 4786   2.244   2.774   0.876
  671LIG     H1 4787   2.269   2.683   0.908
  671LIG     H2 4788   2.308   2.842   0.912
  671LIG     H3 4789   2.151   2.796   0.908
  671LIG     CA 4790   2.246   2.777   0.724
  671LIG     HA 4791   2.338   2.754   0.692
  671LIG     CB 4792   2.149   2.673   0.672
  671LIG    HB1 4793   2.057   2.693   0.706
  671LIG    HB2 4794   2.176   2.583   0.704
  671LIG     CG 4795   2.147   2.674   0.522
  671LIG    OD1 4796   2.062   2.763   0.467
  671LIG    OD2 4797   2.217   2.598   0.455
  671LIG      C 4798   2.206   2.918   0.673
  671LIG    OT1 4799   2.176   3.012   0.767
  671LIG    OT2 4800   2.203   2.936   0.538
  672LIG      N 4801   5.090   0.937   5.072
  672LIG     H1 4802   5.182   0.973   5.085
  672LIG     H2 4803   5.071   0.927   4.974
  672LIG     H3 4804   5.024   1.000   5.112
  672LIG     CA 4805   5.078   0.802   5.140
  672LIG     HA 4806   5.145   0.739   5.100
  672LIG     CB 4807   5.108   0.818   5.287
  672LIG    HB1 4808   5.043   0.884   5.327
  672LIG    HB2 4809   5.200   0.853   5.299
  672LIG     CG 4810   5.095   0.687   5.358
  672LIG    OD1 4811   4.971   0.656   5.399
  672LIG    OD2 4812   5.192   0.613   5.377
  672LIG      C 4813   4.935   0.745   5.120
  672LIG    OT1 4814   4.846   0.822   5.049
  672LIG    OT2 4815   4.908   0.624   5.176
  673LIG      N 4816   0.664   4.524   9.688
  673LIG     H1 4817   0.669   4.499   9.785
  673LIG     H2 4818   0.734   4.593   9.667
  673LIG     H3 4819   0.573   4.560   9.667
  673LIG     CA 4820   0.689   4.400   9.603
  673LIG     HA 4821   0.779   4.363   9.623
  673LIG     CB 4822   0.584   4.296   9.636
  673LIG    HB1 4823   0.493   4.333   9.618
  673LIG    HB2 4824   0.591   4.272   9.733
  673LIG     CG 4825   0.604   4.173   9.553
  673LIG    OD1 4826   0.545   4.176   9.432
  673LIG    OD2 4827   0.669   4.077   9.593
  673LIG      C 4828   0.681   4.437   9.452
  673LIG    OT1 4829   0.654   4.567   9.421
  673LIG    OT2 4830   0.700   4.336   9.363
  674LIG      N 4831   0.154   0.576   6.623
  674LIG     H1 4832   0.086   0.588   6.695
  674LIG     H2 4833   0.161   0.479   6.598
  674LIG     H3 4834   0.243   0.609   6.655
  674LIG     CA 4835   0.113   0.657   6.501
  674LIG     HA 4836   0.024   0.625   6.469
  674LIG     CB 4837   0.102   0.802   6.540
  674LIG    HB1 4838   0.190   0.835   6.575
  674LIG    HB2 4839   0.033   0.813   6.611
  674LIG     CG 4840   0.062   0.885   6.422
  674LIG    OD1 4841   0.165   0.926   6.344
  674LIG    OD2 4842  -0.055   0.914   6.397
  674LIG      C 4843   0.218   0.640   6.388
  674LIG    OT1 4844   0.325   0.560   6.414
  674LIG    OT2 4845   0.194   0.706   6.271
  675LIG      N 4846   3.924   0.814   9.691
  675LIG     H1 4847   3.860   0.759   9.745
  675LIG     H2 4848   3.873   0.865   9.622
  675LIG     H3 4849   3.991   0.754   9.647
  675LIG     CA 4850   3.997   0.910   9.783
  675LIG     HA 4851   3.931   0.970   9.828
  675LIG     CB 4852   4.072   0.831   9.888
  675LIG    HB1 4853   4.137   0.769   9.843
  675LIG    HB2 4854   4.007   0.777   9.942
  675LIG     CG 4855   4.146   0.923   9.980
  675LIG    OD1 4856   4.269   0.958   9.937
  675LIG    OD2 4857   4.099   0.963  10.086
  675LIG      C 4858   4.097   0.996   9.701
  675LIG    OT1 4859   4.103   0.973   9.566
  675LIG    OT2 4860   4.170   1.088   9.769
  676LIG      N 4861   8.753   1.579   2.180
  676LIG     H1 4862   8.774   1.643   2.105
  676LIG     H2 4863   8.756   1.629   2.267
  676LIG     H3 4864   8.821   1.505   2.181
  676LIG     CA 4865   8.615   1.520   2.160
  676LIG     HA 4866   8.547   1.594   2.159
  676LIG     CB 4867   8.611   1.447   2.028
  676LIG    HB1 4868   8.681   1.375   2.027
  676LIG    HB2 4869   8.631   1.511   1.954
  676LIG     CG 4870   8.476   1.386   2.005
  676LIG    OD1 4871   8.460   1.263   2.059
  676LIG    OD2 4872   8.388   1.444   1.941
  676LIG      C 4873   8.582   1.422   2.276
  676LIG    OT1 4874   8.677   1.404   2.372
  676LIG    OT2 4875   8.460   1.360   2.272
  677LIG      N 4876   0.449   6.401  -0.014
  677LIG     H1 4877   0.464   6.499  -0.028
  677LIG     H2 4878   0.499   6.349  -0.083
  677LIG     H3 4879   0.351   6.381  -0.021
  677LIG     CA 4880   0.498   6.361   0.124
  677LIG     HA 4881   0.596   6.382   0.132
  677LIG     CB 4882   0.423   6.442   0.228
  677LIG    HB1 4883   0.325   6.424   0.219
  677LIG    HB2 4884   0.440   6.539   0.214
  677LIG     CG 4885   0.468   6.404   0.366
  677LIG    OD1 4886   0.404   6.298   0.420
  677LIG    OD2 4887   0.556   6.466   0.426
  677LIG      C 4888   0.475   6.210   0.147
  677LIG    OT1 4889   0.417   6.139   0.046
  677LIG    OT2 4890   0.514   6.159   0.267
  678LIG      N 4891   9.235   0.366   3.245
  678LIG     H1 4892   9.314   0.308   3.223
  678LIG     H2 4893   9.155   0.335   3.193
  678LIG     H3 4894   9.256   0.461   3.220
  678LIG     CA 4895   9.206   0.359   3.393
  678LIG     HA 4896   9.186   0.264   3.418
  678LIG     CB 4897   9.328   0.405   3.470
  678LIG    HB1 4898   9.351   0.499   3.443
  678LIG    HB2 4899   9.405   0.346   3.448
  678LIG     CG 4900   9.302   0.400   3.617
  678LIG    OD1 4901   9.244   0.511   3.668
  678LIG    OD2 4902   9.333   0.303   3.687
  678LIG      C 4903   9.084   0.449   3.428
  678LIG    OT1 4904   9.026   0.517   3.325
  678LIG    OT2 4905   9.045   0.453   3.559
  679LIG      N 4906   4.301   8.402   8.645
  679LIG     H1 4907   4.261   8.427   8.734
  679LIG     H2 4908   4.361   8.323   8.656
  679LIG     H3 4909   4.354   8.480   8.609
  679LIG     CA 4910   4.189   8.369   8.548
  679LIG     HA 4911   4.136   8.292   8.583
  679LIG     CB 4912   4.099   8.489   8.533
  679LIG    HB1 4913   4.153   8.567   8.500
  679LIG    HB2 4914   4.060   8.513   8.621
  679LIG     CG 4915   3.989   8.460   8.436
  679LIG    OD1 4916   4.019   8.483   8.306
  679LIG    OD2 4917   3.878   8.420   8.472
  679LIG      C 4918   4.249   8.330   8.410
  679LIG    OT1 4919   4.386   8.333   8.398
  679LIG    OT2 4920   4.162   8.297   8.311
  680LIG      N 4921   1.700   7.995   5.392
  680LIG     H1 4922   1.663   7.975   5.301
  680LIG     H2 4923   1.695   7.913   5.449
  680LIG     H3 4924   1.646   8.069   5.433
  680LIG     CA 4925   1.844   8.040   5.378
  680LIG     HA 4926   1.898   7.968   5.336
  680LIG     CB 4927   1.849   8.163   5.290
  680LIG    HB1 4928   1.794   8.236   5.331
  680LIG    HB2 4929   1.813   8.141   5.200
  680LIG     CG 4930   1.990   8.211   5.276
  680LIG    OD1 4931   2.032   8.295   5.373
  680LIG    OD2 4932   2.062   8.178   5.182
  680LIG      C 4933   1.903   8.073   5.518
  680LIG    OT1 4934   1.820   8.057   5.626
  680LIG    OT2 4935   2.032   8.115   5.523
  681LIG      N 4936   2.078   9.422   8.305
  681LIG     H1 4937   2.152   9.406   8.239
  681LIG     H2 4938   2.028   9.505   8.280
  681LIG     H3 4939   2.117   9.432   8.397
  681LIG     CA 4940   1.983   9.303   8.305
  681LIG     HA 4941   1.945   9.292   8.213
  681LIG     CB 4942   2.061   9.178   8.341
  681LIG    HB1 4943   2.102   9.190   8.432
  681LIG    HB2 4944   2.133   9.163   8.275
  681LIG     CG 4945   1.970   9.059   8.343
  681LIG    OD1 4946   1.906   9.039   8.460
  681LIG    OD2 4947   1.956   8.985   8.246
  681LIG      C 4948   1.869   9.326   8.407
  681LIG    OT1 4949   1.871   9.443   8.478
  681LIG    OT2 4950   1.775   9.228   8.418
  682LIG      N 4951   0.089   5.130   3.674
  682LIG     H1 4952   0.056   5.035   3.680
  682LIG     H2 4953   0.084   5.172   3.764
  682LIG     H3 4954   0.033   5.181   3.609
  682LIG     CA 4955   0.234   5.131   3.627
  682LIG     HA 4956   0.290   5.079   3.691
  682LIG     CB 4957   0.241   5.064   3.491
  682LIG    HB1 4958   0.182   5.114   3.426
  682LIG    HB2 4959   0.209   4.970   3.497
  682LIG     CG 4960   0.382   5.065   3.440
  682LIG    OD1 4961   0.418   5.177   3.373
  682LIG    OD2 4962   0.458   4.970   3.456
  682LIG      C 4963   0.285   5.277   3.617
  682LIG    OT1 4964   0.198   5.376   3.651
  682LIG    OT2 4965   0.414   5.294   3.576
  683LIG      N 4966   8.664   6.422   7.375
  683LIG     H1 4967   8.692   6.326   7.365
  683LIG     H2 4968   8.744   6.479   7.394
  683LIG     H3 4969   8.598   6.430   7.450
  683LIG     CA 4970   8.599   6.469   7.246
  683LIG     HA 4971   8.664   6.460   7.171
  683LIG     CB 4972   8.479   6.381   7.217
  683LIG    HB1 4973   8.414   6.386   7.293
  683LIG    HB2 4974   8.508   6.286   7.207
  683LIG     CG 4975   8.411   6.425   7.091
  683LIG    OD1 4976   8.319   6.523   7.107
  683LIG    OD2 4977   8.436   6.375   6.981
  683LIG      C 4978   8.553   6.616   7.260
  683LIG    OT1 4979   8.578   6.678   7.379
  683LIG    OT2 4980   8.493   6.673   7.152
  684LIG      N 4981  10.017   2.590   3.455
  684LIG     H1 4982   9.921   2.618   3.456
  684LIG     H2 4983  10.064   2.626   3.536
  684LIG     H3 4984  10.062   2.626   3.372
  684LIG     CA 4985  10.026   2.438   3.453
  684LIG     HA 4986   9.982   2.402   3.535
  684LIG     CB 4987   9.955   2.386   3.331
  684LIG    HB1 4988   9.997   2.425   3.248
  684LIG    HB2 4989   9.859   2.414   3.333
  684LIG     CG 4990   9.963   2.237   3.325
  684LIG    OD1 4991  10.074   2.188   3.266
  684LIG    OD2 4992   9.874   2.164   3.370
  684LIG      C 4993  10.175   2.394   3.451
  684LIG    OT1 4994  10.270   2.493   3.450
  684LIG    OT2 4995  10.200   2.260   3.449
  685LIG      N 4996   9.438   1.758   0.496
  685LIG     H1 4997   9.344   1.730   0.476
  685LIG     H2 4998   9.454   1.756   0.595
  685LIG     H3 4999   9.454   1.850   0.461
  685LIG     CA 5000   9.534   1.662   0.428
  685LIG     HA 5001   9.519   1.569   0.461
  685LIG     CB 5002   9.509   1.665   0.278
  685LIG    HB1 5003   9.522   1.759   0.244
  685LIG    HB2 5004   9.415   1.637   0.260
  685LIG     CG 5005   9.603   1.573   0.207
  685LIG    OD1 5006   9.723   1.627   0.175
  685LIG    OD2 5007   9.573   1.457   0.179
  685LIG      C 5008   9.681   1.704   0.457
  685LIG    OT1 5009   9.700   1.814   0.536
  685LIG    OT2 5010   9.780   1.628   0.402
  686LIG      N 5011   8.699   2.362   8.757
  686LIG     H1 5012   8.746   2.399   8.677
  686LIG     H2 5013   8.649   2.436   8.803
  686LIG     H3 5014   8.766   2.322   8.820
  686LIG     CA 5015   8.600   2.255   8.714
  686LIG     HA 5016   8.534   2.294   8.650
  686LIG     CB 5017   8.676   2.145   8.643
  686LIG    HB1 5018   8.746   2.106   8.705
  686LIG    HB2 5019   8.722   2.181   8.563
  686LIG     CG 5020   8.583   2.036   8.600
  686LIG    OD1 5021   8.558   1.942   8.694
  686LIG    OD2 5022   8.533   2.032   8.488
  686LIG      C 5023   8.527   2.197   8.838
  686LIG    OT1 5024   8.560   2.249   8.960
  686LIG    OT2 5025   8.435   2.099   8.815
  687LIG      N 5026   2.018   5.287   3.949
  687LIG     H1 5027   2.013   5.264   4.047
  687LIG     H2 5028   2.019   5.386   3.939
  687LIG     H3 5029   1.938   5.249   3.902
  687LIG     CA 5030   2.144   5.228   3.888
  687LIG     HA 5031   2.224   5.265   3.936
  687LIG     CB 5032   2.141   5.078   3.906
  687LIG    HB1 5033   2.059   5.040   3.861
  687LIG    HB2 5034   2.137   5.055   4.003
  687LIG     CG 5035   2.263   5.015   3.846
  687LIG    OD1 5036   2.253   4.988   3.714
  687LIG    OD2 5037   2.364   4.991   3.912
  687LIG      C 5038   2.151   5.263   3.737
  687LIG    OT1 5039   2.049   5.338   3.686
  687LIG    OT2 5040   2.259   5.217   3.668
  688LIG      N 5041   6.774   8.407   1.216
  688LIG     H1 5042   6.821   8.464   1.284
  688LIG     H2 5043   6.768   8.313   1.250
  688LIG     H3 5044   6.826   8.409   1.130
  688LIG     CA 5045   6.635   8.461   1.191
  688LIG     HA 5046   6.583   8.460   1.276
  688LIG     CB 5047   6.645   8.603   1.141
  688LIG    HB1 5048   6.700   8.605   1.056
  688LIG    HB2 5049   6.691   8.660   1.209
  688LIG     CG 5050   6.509   8.660   1.113
  688LIG    OD1 5051   6.461   8.633   0.990
  688LIG    OD2 5052   6.447   8.726   1.196
  688LIG      C 5053   6.562   8.373   1.085
  688LIG    OT1 5054   6.631   8.267   1.034
  688LIG    OT2 5055   6.435   8.409   1.052
  689LIG      N 5056   7.632   0.867   7.115
  689LIG     H1 5057   7.541   0.852   7.155
  689LIG     H2 5058   7.697   0.889   7.187
  689LIG     H3 5059   7.627   0.944   7.050
  689LIG     CA 5060   7.677   0.742   7.041
  689LIG     HA 5061   7.681   0.666   7.105
  689LIG     CB 5062   7.577   0.710   6.933
  689LIG    HB1 5063   7.570   0.788   6.869
  689LIG    HB2 5064   7.487   0.694   6.973
  689LIG     CG 5065   7.619   0.588   6.857
  689LIG    OD1 5066   7.703   0.612   6.754
  689LIG    OD2 5067   7.578   0.476   6.885
  689LIG      C 5068   7.817   0.766   6.978
  689LIG    OT1 5069   7.875   0.888   6.998
  689LIG    OT2 5070   7.872   0.662   6.908
  690LIG      N 5071   4.564   1.625   8.613
  690LIG     H1 5072   4.475   1.604   8.654
  690LIG     H2 5073   4.555   1.627   8.514
  690LIG     H3 5074   4.631   1.556   8.640
  690LIG     CA 5075   4.611   1.761   8.662
  690LIG     HA 5076   4.545   1.831   8.636
  690LIG     CB 5077   4.623   1.758   8.813
  690LIG    HB1 5078   4.687   1.686   8.840
  690LIG    HB2 5079   4.534   1.738   8.853
  690LIG     CG 5080   4.670   1.890   8.865
  690LIG    OD1 5081   4.805   1.904   8.867
  690LIG    OD2 5082   4.593   1.978   8.903
  690LIG      C 5083   4.749   1.795   8.599
  690LIG    OT1 5084   4.804   1.702   8.515
  690LIG    OT2 5085   4.805   1.914   8.634
  691LIG      N 5086   2.968   9.544   0.336
  691LIG     H1 5087   2.941   9.638   0.317
  691LIG     H2 5088   2.951   9.523   0.432
  691LIG     H3 5089   3.065   9.533   0.316
  691LIG     CA 5090   2.888   9.449   0.247
  691LIG     HA 5091   2.791   9.461   0.266
  691LIG     CB 5092   2.914   9.484   0.103
  691LIG    HB1 5093   3.013   9.476   0.083
  691LIG    HB2 5094   2.886   9.578   0.085
  691LIG     CG 5095   2.838   9.392   0.012
  691LIG    OD1 5096   2.902   9.276  -0.017
  691LIG    OD2 5097   2.727   9.420  -0.033
  691LIG      C 5098   2.930   9.303   0.275
  691LIG    OT1 5099   3.027   9.282   0.370
  691LIG    OT2 5100   2.867   9.205   0.203
  692LIG      N 5101   6.544   7.969   9.093
  692LIG     H1 5102   6.608   7.938   9.022
  692LIG     H2 5103   6.470   7.902   9.102
  692LIG     H3 5104   6.506   8.058   9.067
  692LIG     CA 5105   6.617   7.983   9.225
  692LIG     HA 5106   6.656   7.894   9.251
  692LIG     CB 5107   6.729   8.083   9.208
  692LIG    HB1 5108   6.691   8.171   9.180
  692LIG    HB2 5109   6.793   8.051   9.138
  692LIG     CG 5110   6.803   8.100   9.337
  692LIG    OD1 5111   6.750   8.192   9.421
  692LIG    OD2 5112   6.905   8.036   9.364
  692LIG      C 5113   6.519   8.031   9.335
  692LIG    OT1 5114   6.389   8.052   9.299
  692LIG    OT2 5115   6.571   8.048   9.460
  693LIG      N 5116   7.891   2.062   3.934
  693LIG     H1 5117   7.809   2.018   3.971
  693LIG     H2 5118   7.881   2.073   3.835
  693LIG     H3 5119   7.971   2.006   3.953
  693LIG     CA 5120   7.909   2.199   3.999
  693LIG     HA 5121   7.829   2.255   3.980
  693LIG     CB 5122   7.922   2.180   4.148
  693LIG    HB1 5123   8.001   2.121   4.168
  693LIG    HB2 5124   7.840   2.137   4.184
  693LIG     CG 5125   7.942   2.312   4.215
  693LIG    OD1 5126   8.071   2.354   4.222
  693LIG    OD2 5127   7.849   2.377   4.262
  693LIG      C 5128   8.036   2.267   3.942
  693LIG    OT1 5129   8.108   2.199   3.848
  693LIG    OT2 5130   8.067   2.391   3.991
  694LIG      N 5131   9.636   9.789   3.975
  694LIG     H1 5132   9.681   9.814   3.889
  694LIG     H2 5133   9.665   9.850   4.048
  694LIG     H3 5134   9.660   9.695   3.998
  694LIG     CA 5135   9.485   9.799   3.957
  694LIG     HA 5136   9.461   9.893   3.933
  694LIG     CB 5137   9.443   9.706   3.845
  694LIG    HB1 5138   9.469   9.612   3.867
  694LIG    HB2 5139   9.488   9.733   3.760
  694LIG     CG 5140   9.294   9.713   3.826
  694LIG    OD1 5141   9.223   9.629   3.905
  694LIG    OD2 5142   9.242   9.787   3.743
  694LIG      C 5143   9.414   9.759   4.089
  694LIG    OT1 5144   9.493   9.723   4.194
  694LIG    OT2 5145   9.277   9.763   4.089
  695LIG      N 5146   0.587   8.112   3.971
  695LIG     H1 5147   0.523   8.188   3.960
  695LIG     H2 5148   0.538   8.026   3.962
  695LIG     H3 5149   0.631   8.118   4.061
  695LIG     CA 5150   0.694   8.121   3.863
  695LIG     HA 5151   0.651   8.117   3.773
  695LIG     CB 5152   0.766   8.254   3.876
  695LIG    HB1 5153   0.807   8.260   3.968
  695LIG    HB2 5154   0.701   8.328   3.865
  695LIG     CG 5155   0.873   8.265   3.772
  695LIG    OD1 5156   0.992   8.211   3.807
  695LIG    OD2 5157   0.854   8.321   3.664
  695LIG      C 5158   0.795   8.004   3.879
  695LIG    OT1 5159   0.773   7.916   3.981
  695LIG    OT2 5160   0.897   7.998   3.789
  696LIG      N 5161   5.640   7.433   9.324
  696LIG     H1 5162   5.579   7.354   9.335
  696LIG     H2 5163   5.585   7.517   9.321
  696LIG     H3 5164   5.692   7.424   9.239
  696LIG     CA 5165   5.736   7.440   9.441
  696LIG     HA 5166   5.684   7.448   9.526
  696LIG     CB 5167   5.817   7.312   9.446
  696LIG    HB1 5168   5.867   7.301   9.359
  696LIG    HB2 5169   5.756   7.234   9.457
  696LIG     CG 5170   5.914   7.315   9.559
  696LIG    OD1 5171   6.032   7.375   9.531
  696LIG    OD2 5172   5.889   7.267   9.670
  696LIG      C 5173   5.831   7.562   9.426
  696LIG    OT1 5174   5.814   7.640   9.315
  696LIG    OT2 5175   5.923   7.581   9.524
  697LIG      N 5176   4.841   8.329   6.499
  697LIG     H1 5177   4.849   8.421   6.459
  697LIG     H2 5178   4.899   8.265   6.450
  697LIG     H3 5179   4.745   8.299   6.495
  697LIG     CA 5180   4.884   8.335   6.645
  697LIG     HA 5181   4.979   8.366   6.650
  697LIG     CB 5182   4.796   8.434   6.719
  697LIG    HB1 5183   4.700   8.405   6.712
  697LIG    HB2 5184   4.805   8.524   6.678
  697LIG     CG 5185   4.835   8.441   6.863
  697LIG    OD1 5186   4.777   8.348   6.942
  697LIG    OD2 5187   4.914   8.525   6.906
  697LIG      C 5188   4.872   8.195   6.710
  697LIG    OT1 5189   4.826   8.093   6.630
  697LIG    OT2 5190   4.907   8.183   6.841
  698LIG      N 5191   7.986   4.000   2.914
  698LIG     H1 5192   7.886   3.991   2.920
  698LIG     H2 5193   8.010   4.055   2.834
  698LIG     H3 5194   8.027   3.909   2.906
  698LIG     CA 5195   8.039   4.066   3.040
  698LIG     HA 5196   7.998   4.157   3.050
  698LIG     CB 5197   8.001   3.982   3.160
  698LIG    HB1 5198   8.039   3.890   3.150
  698LIG    HB2 5199   7.902   3.975   3.166
  698LIG     CG 5200   8.053   4.044   3.286
  698LIG    OD1 5201   8.180   4.009   3.318
  698LIG    OD2 5202   7.985   4.119   3.355
  698LIG      C 5203   8.194   4.079   3.032
  698LIG    OT1 5204   8.254   4.032   2.919
  698LIG    OT2 5205   8.257   4.137   3.138
  699LIG      N 5206   4.570   1.671   6.922
  699LIG     H1 5207   4.612   1.739   6.983
  699LIG     H2 5208   4.500   1.715   6.866
  699LIG     H3 5209   4.529   1.597   6.976
  699LIG     CA 5210   4.677   1.613   6.831
  699LIG     HA 5211   4.719   1.686   6.777
  699LIG     CB 5212   4.784   1.548   6.917
  699LIG    HB1 5213   4.742   1.476   6.973
  699LIG    HB2 5214   4.825   1.616   6.977
  699LIG     CG 5215   4.890   1.487   6.830
  699LIG    OD1 5216   4.865   1.362   6.788
  699LIG    OD2 5217   4.994   1.548   6.801
  699LIG      C 5218   4.614   1.507   6.736
  699LIG    OT1 5219   4.480   1.485   6.748
  699LIG    OT2 5220   4.698   1.446   6.648
  700LIG      N 5221   1.840   0.454   7.601
  700LIG     H1 5222   1.847   0.382   7.671
  700LIG     H2 5223   1.853   0.543   7.644
  700LIG     H3 5224   1.749   0.449   7.558
  700LIG     CA 5225   1.946   0.432   7.495
  700LIG     HA 5226   2.037   0.435   7.538
  700LIG     CB 5227   1.926   0.296   7.433
  700LIG    HB1 5228   1.835   0.290   7.392
  700LIG    HB2 5229   1.935   0.225   7.503
  700LIG     CG 5230   2.029   0.271   7.327
  700LIG    OD1 5231   1.996   0.318   7.204
  700LIG    OD2 5232   2.135   0.212   7.349
  700LIG      C 5233   1.936   0.542   7.386
  700LIG    OT1 5234   1.838   0.636   7.402
  700LIG    OT2 5235   2.025   0.536   7.284
  701LIG      N 5236   1.970   0.561   6.578
  701LIG     H1 5237   1.912   0.480   6.578
  701LIG     H2 5238   2.031   0.558   6.499
  701LIG     H3 5239   2.024   0.564   6.662
  701LIG     CA 5240   1.883   0.685   6.571
  701LIG     HA 5241   1.828   0.683   6.487
  701LIG     CB 5242   1.790   0.687   6.690
  701LIG    HB1 5243   1.845   0.687   6.775
  701LIG    HB2 5244   1.732   0.606   6.689
  701LIG     CG 5245   1.704   0.810   6.687
  701LIG    OD1 5246   1.759   0.919   6.743
  701LIG    OD2 5247   1.591   0.809   6.638
  701LIG      C 5248   1.972   0.813   6.571
  701LIG    OT1 5249   2.107   0.794   6.577
  701LIG    OT2 5250   1.908   0.933   6.564
  702LIG      N 5251   9.756   0.449   4.117
  702LIG     H1 5252   9.791   0.505   4.043
  702LIG     H2 5253   9.727   0.507   4.193
  702LIG     H3 5254   9.828   0.386   4.149
  702LIG     CA 5255   9.638   0.367   4.068
  702LIG     HA 5256   9.566   0.429   4.035
  702LIG     CB 5257   9.683   0.280   3.953
  702LIG    HB1 5258   9.757   0.219   3.984
  702LIG    HB2 5259   9.717   0.337   3.879
  702LIG     CG 5260   9.569   0.197   3.902
  702LIG    OD1 5261   9.551   0.080   3.967
  702LIG    OD2 5262   9.499   0.233   3.807
  702LIG      C 5263   9.582   0.279   4.182
  702LIG    OT1 5264   9.645   0.287   4.304
  702LIG    OT2 5265   9.475   0.199   4.153
  703LIG      N 5266   2.151   2.269   8.980
  703LIG     H1 5267   2.082   2.197   8.989
  703LIG     H2 5268   2.165   2.291   8.883
  703LIG     H3 5269   2.237   2.238   9.021
  703LIG     CA 5270   2.103   2.394   9.053
  703LIG     HA 5271   2.017   2.425   9.014
  703LIG     CB 5272   2.081   2.359   9.199
  703LIG    HB1 5273   2.167   2.325   9.239
  703LIG    HB2 5274   2.012   2.288   9.207
  703LIG     CG 5275   2.035   2.480   9.275
  703LIG    OD1 5276   2.135   2.559   9.322
  703LIG    OD2 5277   1.916   2.505   9.294
  703LIG      C 5278   2.210   2.506   9.041
  703LIG    OT1 5279   2.323   2.477   8.971
  703LIG    OT2 5280   2.181   2.625   9.102
  704LIG      N 5281   8.237   8.404   6.616
  704LIG     H1 5282   8.174   8.360   6.552
  704LIG     H2 5283   8.199   8.493   6.644
  704LIG     H3 5284   8.325   8.417   6.572
  704LIG     CA 5285   8.254   8.317   6.739
  704LIG     HA 5286   8.165   8.303   6.783
  704LIG     CB 5287   8.309   8.182   6.696
  704LIG    HB1 5288   8.397   8.195   6.650
  704LIG    HB2 5289   8.245   8.139   6.633
  704LIG     CG 5290   8.329   8.094   6.815
  704LIG    OD1 5291   8.448   8.108   6.878
  704LIG    OD2 5292   8.243   8.013   6.852
  704LIG      C 5293   8.352   8.384   6.839
  704LIG    OT1 5294   8.404   8.505   6.803
  704LIG    OT2 5295   8.378   8.318   6.955
  705LIG      N 5296   1.836   3.760   0.592
  705LIG     H1 5297   1.880   3.823   0.657
  705LIG     H2 5298   1.891   3.754   0.509
  705LIG     H3 5299   1.744   3.794   0.570
  705LIG     CA 5300   1.823   3.622   0.655
  705LIG     HA 5301   1.914   3.588   0.678
  705LIG     CB 5302   1.741   3.634   0.782
  705LIG    HB1 5303   1.650   3.670   0.759
  705LIG    HB2 5304   1.786   3.695   0.846
  705LIG     CG 5305   1.725   3.499   0.846
  705LIG    OD1 5306   1.622   3.426   0.800
  705LIG    OD2 5307   1.801   3.459   0.935
  705LIG      C 5308   1.755   3.525   0.556
  705LIG    OT1 5309   1.718   3.575   0.434
  705LIG    OT2 5310   1.736   3.396   0.598
  706LIG      N 5311   8.871   3.708   9.717
  706LIG     H1 5312   8.897   3.784   9.777
  706LIG     H2 5313   8.874   3.737   9.622
  706LIG     H3 5314   8.779   3.677   9.740
  706LIG     CA 5315   8.969   3.593   9.738
  706LIG     HA 5316   9.061   3.624   9.716
  706LIG     CB 5317   8.964   3.550   9.883
  706LIG    HB1 5318   8.871   3.522   9.907
  706LIG    HB2 5319   8.991   3.627   9.941
  706LIG     CG 5320   9.058   3.436   9.907
  706LIG    OD1 5321   9.006   3.314   9.882
  706LIG    OD2 5322   9.174   3.453   9.947
  706LIG      C 5323   8.930   3.474   9.647
  706LIG    OT1 5324   8.820   3.489   9.566
  706LIG    OT2 5325   9.008   3.362   9.654
  707LIG      N 5326  -0.062   4.281   5.845
  707LIG     H1 5327  -0.005   4.199   5.839
  707LIG     H2 5328  -0.126   4.284   5.768
  707LIG     H3 5329  -0.003   4.363   5.843
  707LIG     CA 5330  -0.139   4.279   5.976
  707LIG     HA 5331  -0.197   4.198   5.979
  707LIG     CB 5332  -0.041   4.274   6.091
  707LIG    HB1 5333   0.019   4.354   6.087
  707LIG    HB2 5334   0.014   4.191   6.084
  707LIG     CG 5335  -0.114   4.273   6.222
  707LIG    OD1 5336  -0.145   4.395   6.270
  707LIG    OD2 5337  -0.143   4.169   6.281
  707LIG      C 5338  -0.228   4.406   5.987
  707LIG    OT1 5339  -0.222   4.496   5.884
  707LIG    OT2 5340  -0.304   4.419   6.100
  708LIG      N 5341   8.089   0.239   8.766
  708LIG     H1 5342   8.181   0.252   8.803
  708LIG     H2 5343   8.030   0.199   8.836
  708LIG     H3 5344   8.094   0.178   8.687
  708LIG     CA 5345   8.032   0.373   8.722
  708LIG     HA 5346   8.028   0.434   8.801
  708LIG     CB 5347   8.123   0.433   8.617
  708LIG    HB1 5348   8.130   0.370   8.539
  708LIG    HB2 5349   8.214   0.446   8.656
  708LIG     CG 5350   8.070   0.564   8.570
  708LIG    OD1 5351   7.980   0.557   8.470
  708LIG    OD2 5352   8.106   0.672   8.619
  708LIG      C 5353   7.890   0.353   8.663
  708LIG    OT1 5354   7.840   0.226   8.661
  708LIG    OT2 5355   7.825   0.465   8.619
  709LIG      N 5356   1.078   7.377   5.438
  709LIG     H1 5357   1.047   7.288   5.471
  709LIG     H2 5358   1.139   7.364   5.359
  709LIG     H3 5359   1.127   7.424   5.511
  709LIG     CA 5360   0.958   7.460   5.396
  709LIG     HA 5361   0.908   7.413   5.324
  709LIG     CB 5362   0.867   7.477   5.515
  709LIG    HB1 5363   0.917   7.523   5.590
  709LIG    HB2 5364   0.835   7.388   5.547
  709LIG     CG 5365   0.747   7.561   5.479
  709LIG    OD1 5366   0.766   7.694   5.489
  709LIG    OD2 5367   0.641   7.511   5.442
  709LIG      C 5368   1.005   7.599   5.345
  709LIG    OT1 5369   1.139   7.624   5.345
  709LIG    OT2 5370   0.908   7.686   5.304
  710LIG      N 5371   6.477   5.191   0.451
  710LIG     H1 5372   6.474   5.151   0.543
  710LIG     H2 5373   6.436   5.127   0.386
  710LIG     H3 5374   6.572   5.208   0.426
  710LIG     CA 5375   6.400   5.322   0.450
  710LIG     HA 5376   6.305   5.305   0.476
  710LIG     CB 5377   6.463   5.416   0.550
  710LIG    HB1 5378   6.559   5.432   0.526
  710LIG    HB2 5379   6.458   5.376   0.641
  710LIG     CG 5380   6.390   5.547   0.551
  710LIG    OD1 5381   6.433   5.636   0.459
  710LIG    OD2 5382   6.299   5.572   0.630
  710LIG      C 5383   6.404   5.385   0.308
  710LIG    OT1 5384   6.473   5.316   0.212
  710LIG    OT2 5385   6.340   5.503   0.291
  711LIG      N 5386   2.512   9.313   8.470
  711LIG     H1 5387   2.544   9.404   8.497
  711LIG     H2 5388   2.518   9.303   8.371
  711LIG     H3 5389   2.418   9.301   8.500
  711LIG     CA 5390   2.599   9.207   8.536
  711LIG     HA 5391   2.694   9.219   8.508
  711LIG     CB 5392   2.591   9.223   8.686
  711LIG    HB1 5393   2.495   9.214   8.716
  711LIG    HB2 5394   2.623   9.314   8.712
  711LIG     CG 5395   2.674   9.120   8.755
  711LIG    OD1 5396   2.611   9.002   8.777
  711LIG    OD2 5397   2.790   9.141   8.790
  711LIG      C 5398   2.550   9.065   8.495
  711LIG    OT1 5399   2.443   9.058   8.411
  711LIG    OT2 5400   2.618   8.959   8.547
  712LIG      N 5401   4.153   7.141   9.730
  712LIG     H1 5402   4.237   7.092   9.751
  712LIG     H2 5403   4.150   7.162   9.633
  712LIG     H3 5404   4.150   7.226   9.783
  712LIG     CA 5405   4.033   7.055   9.768
  712LIG     HA 5406   4.036   6.970   9.716
  712LIG     CB 5407   4.040   7.023   9.915
  712LIG    HB1 5408   4.040   7.108   9.968
  712LIG    HB2 5409   4.124   6.973   9.935
  712LIG     CG 5410   3.923   6.939   9.956
  712LIG    OD1 5411   3.812   7.009   9.990
  712LIG    OD2 5412   3.928   6.816   9.960
  712LIG      C 5413   3.902   7.131   9.737
  712LIG    OT1 5414   3.913   7.257   9.683
  712LIG    OT2 5415   3.785   7.067   9.765
  713LIG      N 5416   4.860   8.031   3.413
  713LIG     H1 5417   4.875   7.933   3.398
  713LIG     H2 5418   4.840   8.048   3.510
  713LIG     H3 5419   4.783   8.062   3.357
  713LIG     CA 5420   4.985   8.108   3.373
  713LIG     HA 5421   5.062   8.077   3.428
  713LIG     CB 5422   5.015   8.081   3.227
  713LIG    HB1 5423   4.937   8.109   3.171
  713LIG    HB2 5424   5.030   7.983   3.214
  713LIG     CG 5425   5.137   8.156   3.183
  713LIG    OD1 5426   5.113   8.282   3.142
  713LIG    OD2 5427   5.249   8.106   3.184
  713LIG      C 5428   4.963   8.260   3.394
  713LIG    OT1 5429   4.842   8.300   3.443
  713LIG    OT2 5430   5.067   8.343   3.363
  714LIG      N 5431   1.860   0.972   0.638
  714LIG     H1 5432   1.918   1.021   0.572
  714LIG     H2 5433   1.771   1.016   0.643
  714LIG     H3 5434   1.904   0.973   0.728
  714LIG     CA 5435   1.844   0.828   0.593
  714LIG     HA 5436   1.801   0.826   0.503
  714LIG     CB 5437   1.980   0.763   0.584
  714LIG    HB1 5438   2.025   0.767   0.673
  714LIG    HB2 5439   2.036   0.812   0.518
  714LIG     CG 5440   1.968   0.621   0.541
  714LIG    OD1 5441   1.946   0.533   0.641
  714LIG    OD2 5442   1.977   0.586   0.423
  714LIG      C 5443   1.755   0.751   0.694
  714LIG    OT1 5444   1.708   0.820   0.802
  714LIG    OT2 5445   1.731   0.619   0.667
  715LIG      N 5446   7.084   1.322   8.591
  715LIG     H1 5447   7.081   1.283   8.499
  715LIG     H2 5448   7.119   1.254   8.655
  715LIG     H3 5449   6.991   1.350   8.618
  715LIG     CA 5450   7.174   1.444   8.592
  715LIG     HA 5451   7.266   1.417   8.564
  715LIG     CB 5452   7.121   1.545   8.493
  715LIG    HB1 5453   7.027   1.571   8.518
  715LIG    HB2 5454   7.120   1.505   8.401
  715LIG     CG 5455   7.207   1.668   8.492
  715LIG    OD1 5456   7.175   1.760   8.585
  715LIG    OD2 5457   7.299   1.683   8.411
  715LIG      C 5458   7.179   1.506   8.734
  715LIG    OT1 5459   7.104   1.445   8.831
  715LIG    OT2 5460   7.256   1.617   8.751
  716LIG      N 5461   1.849   4.532   5.423
  716LIG     H1 5462   1.770   4.471   5.417
  716LIG     H2 5463   1.932   4.478   5.439
  716LIG     H3 5464   1.836   4.598   5.497
  716LIG     CA 5465   1.864   4.609   5.292
  716LIG     HA 5466   1.877   4.544   5.217
  716LIG     CB 5467   1.738   4.688   5.268
  716LIG    HB1 5468   1.723   4.752   5.344
  716LIG    HB2 5469   1.660   4.627   5.261
  716LIG     CG 5470   1.749   4.766   5.140
  716LIG    OD1 5471   1.808   4.887   5.153
  716LIG    OD2 5472   1.707   4.724   5.033
  716LIG      C 5473   1.986   4.704   5.300
  716LIG    OT1 5474   2.058   4.705   5.417
  716LIG    OT2 5475   2.013   4.780   5.190
  717LIG      N 5476   5.913  -0.022   5.078
  717LIG     H1 5477   5.853   0.057   5.085
  717LIG     H2 5478   5.955  -0.041   5.167
  717LIG     H3 5479   5.985  -0.003   5.010
  717LIG     CA 5480   5.833  -0.143   5.033
  717LIG     HA 5481   5.761  -0.162   5.099
  717LIG     CB 5482   5.770  -0.112   4.899
  717LIG    HB1 5483   5.841  -0.091   4.832
  717LIG    HB2 5484   5.709  -0.034   4.907
  717LIG     CG 5485   5.691  -0.230   4.850
  717LIG    OD1 5486   5.762  -0.322   4.781
  717LIG    OD2 5487   5.570  -0.241   4.871
  717LIG      C 5488   5.926  -0.267   5.020
  717LIG    OT1 5489   6.058  -0.249   5.050
  717LIG    OT2 5490   5.868  -0.384   4.980
  718LIG      N 5491   9.796   3.169   5.608
  718LIG     H1 5492   9.765   3.255   5.566
  718LIG     H2 5493   9.732   3.142   5.680
  718LIG     H3 5494   9.887   3.181   5.646
  718LIG     CA 5495   9.801   3.060   5.502
  718LIG     HA 5496   9.710   3.048   5.462
  718LIG     CB 5497   9.896   3.103   5.392
  718LIG    HB1 5498   9.987   3.118   5.431
  718LIG    HB2 5499   9.864   3.188   5.351
  718LIG     CG 5500   9.905   2.997   5.286
  718LIG    OD1 5501   9.995   2.900   5.311
  718LIG    OD2 5502   9.835   3.000   5.185
  718LIG      C 5503   9.849   2.927   5.565
  718LIG    OT1 5504   9.877   2.928   5.698
  718LIG    OT2 5505   9.858   2.819   5.482
  719LIG      N 5506   2.476   9.512   0.106
  719LIG     H1 5507   2.441   9.419   0.118
  719LIG     H2 5508   2.490   9.529   0.008
  719LIG     H3 5509   2.563   9.522   0.155
  719LIG     CA 5510   2.375   9.612   0.161
  719LIG     HA 5511   2.289   9.601   0.113
  719LIG     CB 5512   2.354   9.583   0.308
  719LIG    HB1 5513   2.442   9.591   0.357
  719LIG    HB2 5514   2.319   9.491   0.320
  719LIG     CG 5515   2.256   9.681   0.366
  719LIG    OD1 5516   2.311   9.797   0.409
  719LIG    OD2 5517   2.136   9.656   0.375
  719LIG      C 5518   2.428   9.756   0.142
  719LIG    OT1 5519   2.550   9.771   0.082
  719LIG    OT2 5520   2.349   9.858   0.187
  720LIG      N 5521   4.197   1.305   0.692
  720LIG     H1 5522   4.147   1.228   0.652
  720LIG     H2 5523   4.193   1.299   0.792
  720LIG     H3 5524   4.156   1.391   0.661
  720LIG     CA 5525   4.342   1.300   0.646
  720LIG     HA 5526   4.383   1.214   0.676
  720LIG     CB 5527   4.346   1.307   0.495
  720LIG    HB1 5528   4.303   1.392   0.464
  720LIG    HB2 5529   4.297   1.230   0.457
  720LIG     CG 5530   4.488   1.304   0.447
  720LIG    OD1 5531   4.549   1.424   0.442
  720LIG    OD2 5532   4.544   1.199   0.413
  720LIG      C 5533   4.421   1.419   0.707
  720LIG    OT1 5534   4.352   1.505   0.788
  720LIG    OT2 5535   4.553   1.428   0.675
  721LIG      N 5536   7.944   7.081   6.913
  721LIG     H1 5537   7.937   7.174   6.877
  721LIG     H2 5538   7.954   7.016   6.838
  721LIG     H3 5539   7.862   7.059   6.966
  721LIG     CA 5540   8.065   7.071   7.005
  721LIG     HA 5541   8.147   7.093   6.953
  721LIG     CB 5542   8.050   7.170   7.118
  721LIG    HB1 5543   7.965   7.150   7.169
  721LIG    HB2 5544   8.044   7.262   7.081
  721LIG     CG 5545   8.167   7.162   7.211
  721LIG    OD1 5546   8.156   7.069   7.308
  721LIG    OD2 5547   8.265   7.236   7.200
  721LIG      C 5548   8.077   6.927   7.062
  721LIG    OT1 5549   7.982   6.836   7.023
  721LIG    OT2 5550   8.181   6.902   7.146
  722LIG      N 5551   8.822   2.101   6.078
  722LIG     H1 5552   8.882   2.177   6.052
  722LIG     H2 5553   8.840   2.074   6.172
  722LIG     H3 5554   8.840   2.023   6.017
  722LIG     CA 5555   8.677   2.142   6.064
  722LIG     HA 5556   8.659   2.220   6.123
  722LIG     CB 5557   8.651   2.183   5.920
  722LIG    HB1 5558   8.672   2.106   5.859
  722LIG    HB2 5559   8.710   2.260   5.896
  722LIG     CG 5560   8.508   2.223   5.902
  722LIG    OD1 5561   8.423   2.122   5.875
  722LIG    OD2 5562   8.471   2.341   5.910
  722LIG      C 5563   8.584   2.024   6.102
  722LIG    OT1 5564   8.644   1.908   6.141
  722LIG    OT2 5565   8.449   2.046   6.095
  723LIG      N 5566   1.231   3.430   9.316
  723LIG     H1 5567   1.216   3.529   9.315
  723LIG     H2 5568   1.172   3.387   9.248
  723LIG     H3 5569   1.209   3.395   9.407
  723LIG     CA 5570   1.376   3.400   9.285
  723LIG     HA 5571   1.399   3.436   9.194
  723LIG     CB 5572   1.464   3.468   9.388
  723LIG    HB1 5573   1.440   3.434   9.479
  723LIG    HB2 5574   1.449   3.567   9.385
  723LIG     CG 5575   1.608   3.440   9.361
  723LIG    OD1 5576   1.655   3.325   9.415
  723LIG    OD2 5577   1.679   3.516   9.295
  723LIG      C 5578   1.401   3.247   9.287
  723LIG    OT1 5579   1.294   3.167   9.316
  723LIG    OT2 5580   1.527   3.204   9.261
  724LIG      N 5581   0.090   7.331   2.339
  724LIG     H1 5582   0.053   7.278   2.262
  724LIG     H2 5583   0.040   7.417   2.347
  724LIG     H3 5584   0.187   7.349   2.323
  724LIG     CA 5585   0.074   7.251   2.467
  724LIG     HA 5586  -0.023   7.232   2.482
  724LIG     CB 5587   0.148   7.120   2.452
  724LIG    HB1 5588   0.245   7.138   2.434
  724LIG    HB2 5589   0.110   7.068   2.376
  724LIG     CG 5590   0.136   7.039   2.578
  724LIG    OD1 5591   0.228   7.066   2.672
  724LIG    OD2 5592   0.049   6.953   2.592
  724LIG      C 5593   0.131   7.331   2.587
  724LIG    OT1 5594   0.183   7.454   2.560
  724LIG    OT2 5595   0.124   7.272   2.710
  725LIG      N 5596   2.227   8.572   2.600
  725LIG     H1 5597   2.204   8.507   2.528
  725LIG     H2 5598   2.245   8.523   2.685
  725LIG     H3 5599   2.152   8.636   2.613
  725LIG     CA 5600   2.352   8.650   2.560
  725LIG     HA 5601   2.428   8.586   2.547
  725LIG     CB 5602   2.325   8.723   2.431
  725LIG    HB1 5603   2.247   8.785   2.443
  725LIG    HB2 5604   2.303   8.657   2.359
  725LIG     CG 5605   2.445   8.802   2.389
  725LIG    OD1 5606   2.453   8.926   2.443
  725LIG    OD2 5607   2.530   8.758   2.311
  725LIG      C 5608   2.388   8.752   2.672
  725LIG    OT1 5609   2.308   8.755   2.782
  725LIG    OT2 5610   2.498   8.829   2.651
  726LIG      N 5611   2.911   6.776   9.681
  726LIG     H1 5612   2.824   6.738   9.711
  726LIG     H2 5613   2.911   6.875   9.694
  726LIG     H3 5614   2.926   6.754   9.585
  726LIG     CA 5615   3.023   6.715   9.764
  726LIG     HA 5616   3.008   6.736   9.860
  726LIG     CB 5617   3.022   6.565   9.745
  726LIG    HB1 5618   3.034   6.543   9.648
  726LIG    HB2 5619   2.935   6.528   9.775
  726LIG     CG 5620   3.132   6.501   9.824
  726LIG    OD1 5621   3.252   6.496   9.761
  726LIG    OD2 5622   3.115   6.457   9.937
  726LIG      C 5623   3.160   6.773   9.718
  726LIG    OT1 5624   3.159   6.864   9.617
  726LIG    OT2 5625   3.271   6.728   9.784
  727LIG      N 5626   7.260   9.718   1.106
  727LIG     H1 5627   7.243   9.817   1.104
  727LIG     H2 5628   7.237   9.679   1.017
  727LIG     H3 5629   7.204   9.676   1.177
  727LIG     CA 5630   7.407   9.693   1.136
  727LIG     HA 5631   7.463   9.736   1.066
  727LIG     CB 5632   7.440   9.755   1.270
  727LIG    HB1 5633   7.382   9.714   1.341
  727LIG    HB2 5634   7.424   9.853   1.267
  727LIG     CG 5635   7.584   9.731   1.304
  727LIG    OD1 5636   7.609   9.613   1.366
  727LIG    OD2 5637   7.673   9.812   1.278
  727LIG      C 5638   7.435   9.540   1.140
  727LIG    OT1 5639   7.329   9.457   1.116
  727LIG    OT2 5640   7.563   9.501   1.166
  728LIG      N 5641   8.025   9.925  10.037
  728LIG     H1 5642   7.962   9.854  10.005
  728LIG     H2 5643   8.025   9.927  10.137
  728LIG     H3 5644   7.996  10.014  10.002
  728LIG     CA 5645   8.165   9.895   9.987
  728LIG     HA 5646   8.194   9.805  10.021
  728LIG     CB 5647   8.163   9.891   9.836
  728LIG    HB1 5648   8.131   9.979   9.800
  728LIG    HB2 5649   8.100   9.820   9.805
  728LIG     CG 5650   8.300   9.863   9.782
  728LIG    OD1 5651   8.378   9.971   9.766
  728LIG    OD2 5652   8.338   9.749   9.754
  728LIG      C 5653   8.264  10.004  10.036
  728LIG    OT1 5654   8.213  10.105  10.112
  728LIG    OT2 5655   8.394   9.990   9.998
  729LIG      N 5656   2.379   4.171   6.356
  729LIG     H1 5657   2.292   4.208   6.322
  729LIG     H2 5658   2.440   4.153   6.279
  729LIG     H3 5659   2.361   4.086   6.406
  729LIG     CA 5660   2.444   4.271   6.450
  729LIG     HA 5661   2.460   4.357   6.400
  729LIG     CB 5662   2.350   4.299   6.565
  729LIG    HB1 5663   2.330   4.213   6.613
  729LIG    HB2 5664   2.264   4.337   6.530
  729LIG     CG 5665   2.411   4.397   6.660
  729LIG    OD1 5666   2.491   4.342   6.754
  729LIG    OD2 5667   2.390   4.518   6.653
  729LIG      C 5668   2.578   4.215   6.503
  729LIG    OT1 5669   2.615   4.090   6.460
  729LIG    OT2 5670   2.649   4.294   6.589
  730LIG      N 5671   0.775   5.209   2.556
  730LIG     H1 5672   0.872   5.233   2.559
  730LIG     H2 5673   0.730   5.264   2.485
  730LIG     H3 5674   0.733   5.228   2.645
  730LIG     CA 5675   0.760   5.062   2.523
  730LIG     HA 5676   0.802   5.043   2.435
  730LIG     CB 5677   0.830   4.981   2.630
  730LIG    HB1 5678   0.790   5.001   2.720
  730LIG    HB2 5679   0.927   5.004   2.632
  730LIG     CG 5680   0.816   4.834   2.602
  730LIG    OD1 5681   0.703   4.778   2.651
  730LIG    OD2 5682   0.901   4.770   2.540
  730LIG      C 5683   0.609   5.024   2.519
  730LIG    OT1 5684   0.519   5.124   2.543
  730LIG    OT2 5685   0.579   4.894   2.490
  731LIG      N 5686   6.848   9.781   9.346
  731LIG     H1 5687   6.763   9.749   9.387
  731LIG     H2 5688   6.916   9.708   9.347
  731LIG     H3 5689   6.882   9.860   9.398
  731LIG     CA 5690   6.822   9.824   9.202
  731LIG     HA 5691   6.787   9.746   9.151
  731LIG     CB 5692   6.718   9.934   9.202
  731LIG    HB1 5693   6.752  10.011   9.256
  731LIG    HB2 5694   6.634   9.900   9.242
  731LIG     CG 5695   6.691   9.979   9.062
  731LIG    OD1 5696   6.775  10.075   9.016
  731LIG    OD2 5697   6.599   9.934   8.995
  731LIG      C 5698   6.953   9.875   9.137
  731LIG    OT1 5699   7.066   9.873   9.215
  731LIG    OT2 5700   6.946   9.917   9.008
  732LIG      N 5701   4.834   1.514   6.043
  732LIG     H1 5702   4.921   1.525   6.091
  732LIG     H2 5703   4.760   1.553   6.098
  732LIG     H3 5704   4.817   1.417   6.026
  732LIG     CA 5705   4.840   1.587   5.910
  732LIG     HA 5706   4.858   1.684   5.925
  732LIG     CB 5707   4.953   1.529   5.827
  732LIG    HB1 5708   4.938   1.431   5.813
  732LIG    HB2 5709   5.040   1.541   5.876
  732LIG     CG 5710   4.962   1.597   5.694
  732LIG    OD1 5711   4.882   1.545   5.599
  732LIG    OD2 5712   5.036   1.693   5.674
  732LIG      C 5713   4.706   1.570   5.834
  732LIG    OT1 5714   4.608   1.497   5.895
  732LIG    OT2 5715   4.696   1.630   5.712
  733LIG      N 5716   0.382   6.774   0.376
  733LIG     H1 5717   0.316   6.760   0.303
  733LIG     H2 5718   0.441   6.852   0.353
  733LIG     H3 5719   0.439   6.692   0.387
  733LIG     CA 5720   0.309   6.802   0.506
  733LIG     HA 5721   0.252   6.883   0.496
  733LIG     CB 5722   0.220   6.684   0.539
  733LIG    HB1 5723   0.276   6.601   0.547
  733LIG    HB2 5724   0.154   6.671   0.465
  733LIG     CG 5725   0.147   6.707   0.667
  733LIG    OD1 5726   0.215   6.671   0.778
  733LIG    OD2 5727   0.034   6.755   0.671
  733LIG      C 5728   0.411   6.824   0.621
  733LIG    OT1 5729   0.544   6.816   0.589
  733LIG    OT2 5730   0.361   6.850   0.745
  734LIG      N 5731   9.743   5.541   7.708
  734LIG     H1 5732   9.823   5.590   7.672
  734LIG     H2 5733   9.740   5.551   7.807
  734LIG     H3 5734   9.750   5.444   7.683
  734LIG     CA 5735   9.617   5.599   7.648
  734LIG     HA 5736   9.610   5.696   7.671
  734LIG     CB 5737   9.623   5.585   7.497
  734LIG    HB1 5738   9.632   5.488   7.473
  734LIG    HB2 5739   9.702   5.635   7.462
  734LIG     CG 5740   9.499   5.640   7.434
  734LIG    OD1 5741   9.396   5.553   7.425
  734LIG    OD2 5742   9.492   5.756   7.393
  734LIG      C 5743   9.492   5.524   7.702
  734LIG    OT1 5744   9.515   5.423   7.791
  734LIG    OT2 5745   9.370   5.565   7.657
  735LIG      N 5746   9.839   6.902   8.782
  735LIG     H1 5747   9.889   6.933   8.864
  735LIG     H2 5748   9.847   6.972   8.710
  735LIG     H3 5749   9.743   6.888   8.805
  735LIG     CA 5750   9.899   6.771   8.733
  735LIG     HA 5751   9.995   6.785   8.711
  735LIG     CB 5752   9.888   6.669   8.844
  735LIG    HB1 5753   9.791   6.656   8.869
  735LIG    HB2 5754   9.938   6.700   8.924
  735LIG     CG 5755   9.944   6.537   8.799
  735LIG    OD1 5756   9.857   6.458   8.733
  735LIG    OD2 5757  10.061   6.505   8.821
  735LIG      C 5758   9.822   6.722   8.608
  735LIG    OT1 5759   9.719   6.800   8.563
  735LIG    OT2 5760   9.864   6.605   8.551
  736LIG      N 5761   0.602   2.862   6.984
  736LIG     H1 5762   0.682   2.876   6.925
  736LIG     H2 5763   0.629   2.870   7.080
  736LIG     H3 5764   0.564   2.771   6.967
  736LIG     CA 5765   0.497   2.968   6.951
  736LIG     HA 5766   0.535   3.058   6.967
  736LIG     CB 5767   0.459   2.955   6.806
  736LIG    HB1 5768   0.423   2.863   6.788
  736LIG    HB2 5769   0.539   2.970   6.748
  736LIG     CG 5770   0.354   3.056   6.770
  736LIG    OD1 5771   0.227   3.018   6.794
  736LIG    OD2 5772   0.383   3.166   6.722
  736LIG      C 5773   0.372   2.947   7.041
  736LIG    OT1 5774   0.375   2.843   7.130
  736LIG    OT2 5775   0.269   3.034   7.024
  737LIG      N 5776   6.933   3.577   9.909
  737LIG     H1 5777   6.938   3.588  10.009
  737LIG     H2 5778   7.004   3.632   9.866
  737LIG     H3 5779   6.843   3.607   9.877
  737LIG     CA 5780   6.953   3.431   9.873
  737LIG     HA 5781   7.042   3.400   9.906
  737LIG     CB 5782   6.846   3.348   9.941
  737LIG    HB1 5783   6.755   3.380   9.911
  737LIG    HB2 5784   6.852   3.359  10.040
  737LIG     CG 5785   6.861   3.203   9.907
  737LIG    OD1 5786   6.800   3.166   9.792
  737LIG    OD2 5787   6.924   3.125   9.978
  737LIG      C 5788   6.945   3.412   9.719
  737LIG    OT1 5789   6.922   3.524   9.644
  737LIG    OT2 5790   6.961   3.286   9.671
  738LIG      N 5791   4.749   1.412   9.453
  738LIG     H1 5792   4.699   1.467   9.386
  738LIG     H2 5793   4.825   1.466   9.491
  738LIG     H3 5794   4.784   1.330   9.409
  738LIG     CA 5795   4.655   1.373   9.566
  738LIG     HA 5796   4.619   1.455   9.609
  738LIG     CB 5797   4.540   1.294   9.507
  738LIG    HB1 5798   4.575   1.212   9.461
  738LIG    HB2 5799   4.490   1.349   9.441
  738LIG     CG 5800   4.445   1.251   9.616
  738LIG    OD1 5801   4.478   1.135   9.677
  738LIG    OD2 5802   4.345   1.317   9.645
  738LIG      C 5803   4.730   1.287   9.670
  738LIG    OT1 5804   4.863   1.262   9.647
  738LIG    OT2 5805   4.659   1.243   9.778
  739LIG      N 5806   1.978   5.599   4.271
  739LIG     H1 5807   1.928   5.639   4.348
  739LIG     H2 5808   2.041   5.667   4.233
  739LIG     H3 5809   1.913   5.569   4.201
  739LIG     CA 5810   2.057   5.479   4.320
  739LIG     HA 5811   2.121   5.508   4.391
  739LIG     CB 5812   1.961   5.378   4.379
  739LIG    HB1 5813   1.895   5.350   4.309
  739LIG    HB2 5814   1.912   5.418   4.455
  739LIG     CG 5815   2.036   5.257   4.427
  739LIG    OD1 5816   2.058   5.163   4.333
  739LIG    OD2 5817   2.073   5.244   4.544
  739LIG      C 5818   2.135   5.415   4.202
  739LIG    OT1 5819   2.122   5.474   4.079
  739LIG    OT2 5820   2.212   5.306   4.230
  740LIG      N 5821   5.328   1.465   9.562
  740LIG     H1 5822   5.233   1.497   9.552
  740LIG     H2 5823   5.345   1.439   9.657
  740LIG     H3 5824   5.391   1.538   9.535
  740LIG     CA 5825   5.351   1.344   9.472
  740LIG     HA 5826   5.288   1.271   9.498
  740LIG     CB 5827   5.323   1.384   9.329
  740LIG    HB1 5828   5.385   1.459   9.303
  740LIG    HB2 5829   5.229   1.414   9.320
  740LIG     CG 5830   5.346   1.268   9.237
  740LIG    OD1 5831   5.474   1.253   9.196
  740LIG    OD2 5832   5.256   1.193   9.202
  740LIG      C 5833   5.497   1.295   9.487
  740LIG    OT1 5834   5.578   1.363   9.573
  740LIG    OT2 5835   5.533   1.186   9.412
  741LIG      N 5836   6.946   3.571   0.773
  741LIG     H1 5837   6.984   3.481   0.797
  741LIG     H2 5838   7.021   3.635   0.756
  741LIG     H3 5839   6.889   3.604   0.848
  741LIG     CA 5840   6.861   3.557   0.648
  741LIG     HA 5841   6.918   3.524   0.573
  741LIG     CB 5842   6.750   3.458   0.674
  741LIG    HB1 5843   6.694   3.490   0.751
  741LIG    HB2 5844   6.789   3.370   0.697
  741LIG     CG 5845   6.663   3.444   0.553
  741LIG    OD1 5846   6.563   3.534   0.543
  741LIG    OD2 5847   6.681   3.355   0.469
  741LIG      C 5848   6.801   3.695   0.609
  741LIG    OT1 5849   6.832   3.802   0.690
  741LIG    OT2 5850   6.722   3.700   0.499
  742LIG      N 5851   3.383   1.932   6.041
  742LIG     H1 5852   3.336   1.896   5.960
  742LIG     H2 5853   3.475   1.962   6.016
  742LIG     H3 5854   3.389   1.860   6.110
  742LIG     CA 5855   3.305   2.049   6.097
  742LIG     HA 5856   3.298   2.121   6.028
  742LIG     CB 5857   3.165   2.002   6.133
  742LIG    HB1 5858   3.171   1.928   6.201
  742LIG    HB2 5859   3.119   1.968   6.052
  742LIG     CG 5860   3.085   2.115   6.191
  742LIG    OD1 5861   3.100   2.133   6.324
  742LIG    OD2 5862   3.011   2.185   6.122
  742LIG      C 5863   3.376   2.105   6.223
  742LIG    OT1 5864   3.492   2.043   6.262
  742LIG    OT2 5865   3.318   2.211   6.286
  743LIG      N 5866   0.563   4.548   5.304
  743LIG     H1 5867   0.648   4.592   5.272
  743LIG     H2 5868   0.560   4.552   5.404
  743LIG     H3 5869   0.562   4.453   5.273
  743LIG     CA 5870   0.443   4.622   5.246
  743LIG     HA 5871   0.445   4.717   5.276
  743LIG     CB 5872   0.451   4.618   5.096
  743LIG    HB1 5873   0.452   4.522   5.065
  743LIG    HB2 5874   0.535   4.662   5.065
  743LIG     CG 5875   0.333   4.688   5.035
  743LIG    OD1 5876   0.224   4.611   5.019
  743LIG    OD2 5877   0.337   4.806   5.002
  743LIG      C 5878   0.312   4.554   5.294
  743LIG    OT1 5879   0.324   4.445   5.377
  743LIG    OT2 5880   0.195   4.609   5.251
  744LIG      N 5881   7.896   4.917   3.623
  744LIG     H1 5882   7.826   4.952   3.686
  744LIG     H2 5883   7.866   4.931   3.529
  744LIG     H3 5884   7.910   4.819   3.640
  744LIG     CA 5885   8.027   4.991   3.647
  744LIG     HA 5886   8.013   5.088   3.631
  744LIG     CB 5887   8.069   4.970   3.791
  744LIG    HB1 5888   8.081   4.872   3.808
  744LIG    HB2 5889   8.000   5.006   3.852
  744LIG     CG 5890   8.199   5.040   3.817
  744LIG    OD1 5891   8.310   4.969   3.787
  744LIG    OD2 5892   8.204   5.154   3.864
  744LIG      C 5893   8.136   4.937   3.551
  744LIG    OT1 5894   8.100   4.837   3.465
  744LIG    OT2 5895   8.260   4.994   3.560
  745LIG      N 5896   9.542   6.563   6.336
  745LIG     H1 5897   9.602   6.483   6.326
  745LIG     H2 5898   9.530   6.608   6.247
  745LIG     H3 5899   9.583   6.627   6.401
  745LIG     CA 5900   9.407   6.518   6.388
  745LIG     HA 5901   9.366   6.453   6.324
  745LIG     CB 5902   9.426   6.449   6.522
  745LIG    HB1 5903   9.469   6.512   6.586
  745LIG    HB2 5904   9.485   6.369   6.510
  745LIG     CG 5905   9.294   6.404   6.577
  745LIG    OD1 5906   9.229   6.498   6.649
  745LIG    OD2 5907   9.250   6.291   6.559
  745LIG      C 5908   9.313   6.640   6.405
  745LIG    OT1 5909   9.364   6.763   6.372
  745LIG    OT2 5910   9.187   6.616   6.452
  746LIG      N 5911   2.451   9.865   6.880
  746LIG     H1 5912   2.448   9.774   6.923
  746LIG     H2 5913   2.486   9.931   6.946
  746LIG     H3 5914   2.360   9.891   6.850
  746LIG     CA 5915   2.544   9.861   6.760
  746LIG     HA 5916   2.635   9.833   6.789
  746LIG     CB 5917   2.491   9.759   6.661
  746LIG    HB1 5918   2.398   9.784   6.633
  746LIG    HB2 5919   2.489   9.669   6.704
  746LIG     CG 5920   2.579   9.753   6.540
  746LIG    OD1 5921   2.549   9.843   6.444
  746LIG    OD2 5922   2.671   9.672   6.529
  746LIG      C 5923   2.550  10.001   6.693
  746LIG    OT1 5924   2.475  10.100   6.749
  746LIG    OT2 5925   2.629  10.013   6.582
  747LIG      N 5926   1.533   4.265   3.132
  747LIG     H1 5927   1.475   4.186   3.156
  747LIG     H2 5928   1.549   4.267   3.034
  747LIG     H3 5929   1.621   4.257   3.180
  747LIG     CA 5930   1.464   4.393   3.175
  747LIG     HA 5931   1.376   4.401   3.128
  747LIG     CB 5932   1.439   4.388   3.324
  747LIG    HB1 5933   1.527   4.377   3.373
  747LIG    HB2 5934   1.381   4.310   3.346
  747LIG     CG 5935   1.373   4.514   3.371
  747LIG    OD1 5936   1.457   4.615   3.401
  747LIG    OD2 5937   1.250   4.523   3.382
  747LIG      C 5938   1.553   4.515   3.140
  747LIG    OT1 5939   1.673   4.490   3.080
  747LIG    OT2 5940   1.504   4.638   3.173
  748LIG      N 5941   1.770   4.499   5.798
  748LIG     H1 5942   1.851   4.500   5.857
  748LIG     H2 5943   1.795   4.466   5.707
  748LIG     H3 5944   1.732   4.591   5.791
  748LIG     CA 5945   1.665   4.406   5.857
  748LIG     HA 5946   1.703   4.314   5.865
  748LIG     CB 5947   1.628   4.456   5.995
  748LIG    HB1 5948   1.593   4.550   5.989
  748LIG    HB2 5949   1.709   4.456   6.054
  748LIG     CG 5950   1.524   4.368   6.057
  748LIG    OD1 5951   1.397   4.400   6.025
  748LIG    OD2 5952   1.552   4.274   6.131
  748LIG      C 5953   1.539   4.404   5.767
  748LIG    OT1 5954   1.542   4.481   5.654
  748LIG    OT2 5955   1.435   4.325   5.807
  749LIG      N 5956   1.014   9.198   2.020
  749LIG     H1 5957   1.040   9.191   1.924
  749LIG     H2 5958   1.084   9.156   2.077
  749LIG     H3 5959   0.926   9.152   2.034
  749LIG     CA 5960   0.999   9.345   2.058
  749LIG     HA 5961   1.086   9.392   2.043
  749LIG     CB 5962   0.893   9.408   1.970
  749LIG    HB1 5963   0.806   9.359   1.982
  749LIG    HB2 5964   0.921   9.401   1.874
  749LIG     CG 5965   0.875   9.552   2.005
  749LIG    OD1 5966   0.787   9.575   2.105
  749LIG    OD2 5967   0.934   9.643   1.946
  749LIG      C 5968   0.957   9.357   2.207
  749LIG    OT1 5969   0.942   9.241   2.277
  749LIG    OT2 5970   0.940   9.483   2.256
  750LIG      N 5971   9.211   7.863   3.122
  750LIG     H1 5972   9.228   7.778   3.072
  750LIG     H2 5973   9.223   7.846   3.220
  750LIG     H3 5974   9.118   7.895   3.103
  750LIG     CA 5975   9.310   7.969   3.076
  750LIG     HA 5976   9.403   7.937   3.094
  750LIG     CB 5977   9.293   7.991   2.928
  750LIG    HB1 5978   9.199   8.020   2.909
  750LIG    HB2 5979   9.310   7.906   2.878
  750LIG     CG 5980   9.388   8.096   2.879
  750LIG    OD1 5981   9.343   8.223   2.891
  750LIG    OD2 5982   9.498   8.069   2.832
  750LIG      C 5983   9.285   8.101   3.153
  750LIG    OT1 5984   9.183   8.102   3.245
  750LIG    OT2 5985   9.366   8.207   3.123
  751LIG      N 5986   2.408   0.240   6.140
  751LIG     H1 5987   2.416   0.146   6.172
  751LIG     H2 5988   2.435   0.245   6.043
  751LIG     H3 5989   2.467   0.299   6.194
  751LIG     CA 5990   2.264   0.287   6.154
  751LIG     HA 5991   2.204   0.228   6.100
  751LIG     CB 5992   2.224   0.279   6.299
  751LIG    HB1 5993   2.285   0.336   6.355
  751LIG    HB2 5994   2.231   0.184   6.331
  751LIG     CG 5995   2.083   0.326   6.317
  751LIG    OD1 5996   2.069   0.459   6.334
  751LIG    OD2 5997   1.987   0.248   6.318
  751LIG      C 5998   2.251   0.434   6.104
  751LIG    OT1 5999   2.365   0.494   6.057
  751LIG    OT2 6000   2.127   0.491   6.110
  752LIG      N 6001   4.385   0.216   2.390
  752LIG     H1 6002   4.418   0.189   2.299
  752LIG     H2 6003   4.354   0.134   2.439
  752LIG     H3 6004   4.309   0.280   2.381
  752LIG     CA 6005   4.498   0.282   2.467
  752LIG     HA 6006   4.574   0.219   2.476
  752LIG     CB 6007   4.544   0.404   2.390
  752LIG    HB1 6008   4.467   0.468   2.379
  752LIG    HB2 6009   4.577   0.377   2.300
  752LIG     CG 6010   4.655   0.474   2.464
  752LIG    OD1 6011   4.613   0.563   2.557
  752LIG    OD2 6012   4.773   0.451   2.441
  752LIG      C 6013   4.448   0.324   2.608
  752LIG    OT1 6014   4.318   0.296   2.639
  752LIG    OT2 6015   4.538   0.386   2.690
  753LIG      N 6016   0.138   1.678   4.280
  753LIG     H1 6017   0.117   1.676   4.182
  753LIG     H2 6018   0.233   1.651   4.294
  753LIG     H3 6019   0.077   1.614   4.327
  753LIG     CA 6020   0.115   1.818   4.334
  753LIG     HA 6021   0.174   1.882   4.286
  753LIG     CB 6022  -0.029   1.857   4.310
  753LIG    HB1 6023  -0.090   1.791   4.356
  753LIG    HB2 6024  -0.049   1.856   4.212
  753LIG     CG 6025  -0.056   1.994   4.364
  753LIG    OD1 6026  -0.090   1.998   4.495
  753LIG    OD2 6027  -0.049   2.095   4.294
  753LIG      C 6028   0.146   1.821   4.486
  753LIG    OT1 6029   0.187   1.704   4.544
  753LIG    OT2 6030   0.130   1.941   4.550
  754LIG      N 6031   8.615   7.153   5.889
  754LIG     H1 6032   8.585   7.058   5.895
  754LIG     H2 6033   8.623   7.179   5.792
  754LIG     H3 6034   8.704   7.164   5.933
  754LIG     CA 6035   8.514   7.243   5.957
  754LIG     HA 6036   8.425   7.233   5.914
  754LIG     CB 6037   8.503   7.202   6.103
  754LIG    HB1 6038   8.593   7.210   6.147
  754LIG    HB2 6039   8.472   7.108   6.109
  754LIG     CG 6040   8.405   7.290   6.174
  754LIG    OD1 6041   8.457   7.405   6.224
  754LIG    OD2 6042   8.286   7.259   6.188
  754LIG      C 6043   8.560   7.392   5.948
  754LIG    OT1 6044   8.677   7.416   5.882
  754LIG    OT2 6045   8.479   7.485   6.005
  755LIG      N 6046   8.323   3.286   4.546
  755LIG     H1 6047   8.330   3.198   4.592
  755LIG     H2 6048   8.352   3.359   4.608
  755LIG     H3 6049   8.228   3.301   4.518
  755LIG     CA 6050   8.412   3.286   4.422
  755LIG     HA 6051   8.506   3.271   4.450
  755LIG     CB 6052   8.368   3.174   4.330
  755LIG    HB1 6053   8.272   3.188   4.304
  755LIG    HB2 6054   8.377   3.087   4.377
  755LIG     CG 6055   8.453   3.172   4.207
  755LIG    OD1 6056   8.411   3.254   4.108
  755LIG    OD2 6057   8.553   3.101   4.197
  755LIG      C 6058   8.401   3.423   4.349
  755LIG    OT1 6059   8.317   3.516   4.404
  755LIG    OT2 6060   8.475   3.438   4.236
  756SOL     OW 6061   0.225   0.275   0.996
  756SOL    HW1 6062   0.260   0.258   1.088
  756SOL    HW2 6063   0.137   0.230   0.984
  757SOL     OW 6064   0.019   0.368   0.647
  757SOL    HW1 6065  -0.063   0.411   0.686
  757SOL    HW2 6066  -0.009   0.295   0.584
  758SOL     OW 6067   0.569   1.275   1.165
  758SOL    HW1 6068   0.476   1.268   1.128
  758SOL    HW2 6069   0.580   1.364   1.209
  759SOL     OW 6070   1.555   1.511   0.703
  759SOL    HW1 6071   1.498   1.495   0.784
  759SOL    HW2 6072   1.496   1.521   0.623
  760SOL     OW 6073   1.135   0.703   0.717
  760SOL    HW1 6074   1.192   0.781   0.692
  760SOL    HW2 6075   1.075   0.729   0.793
  761SOL     OW 6076   1.755   0.607   0.231
  761SOL    HW1 6077   1.743   0.594   0.132
  761SOL    HW2 6078   1.725   0.526   0.280
  762SOL     OW 6079   0.768   1.144   1.023
  762SOL    HW1 6080   0.690   1.161   1.083
  762SOL    HW2 6081   0.802   1.231   0.987
  763SOL     OW 6082   0.850   0.798   1.823
  763SOL    HW1 6083   0.846   0.874   1.888
  763SOL    HW2 6084   0.872   0.834   1.732
  764SOL     OW 6085   0.685   1.012   0.665
  764SOL    HW1 6086   0.754   0.996   0.735
  764SOL    HW2 6087   0.612   1.069   0.703
  765SOL     OW 6088   0.686   1.161   1.803
  765SOL    HW1 6089   0.746   1.240   1.817
  765SOL    HW2 6090   0.600   1.192   1.762
  766SOL     OW 6091   0.335   1.435   1.061
  766SOL    HW1 6092   0.257   1.404   1.008
  766SOL    HW2 6093   0.393   1.493   1.004
  767SOL     OW 6094   1.460   1.505   1.339
  767SOL    HW1 6095   1.484   1.599   1.365
  767SOL    HW2 6096   1.444   1.451   1.421
  768SOL     OW 6097   1.603   0.447   0.737
  768SOL    HW1 6098   1.529   0.493   0.687
  768SOL    HW2 6099   1.654   0.515   0.790
  769SOL     OW 6100   0.231   1.713   0.483
  769SOL    HW1 6101   0.265   1.790   0.537
  769SOL    HW2 6102   0.275   1.713   0.393
  770SOL     OW 6103   1.127   1.341   1.690
  770SOL    HW1 6104   1.174   1.341   1.778
  770SOL    HW2 6105   1.079   1.254   1.679
  771SOL     OW 6106   0.230   1.434   0.538
  771SOL    HW1 6107   0.204   1.530   0.538
  771SOL    HW2 6108   0.159   1.380   0.583
  772SOL     OW 6109   0.240   1.091   0.886
  772SOL    HW1 6110   0.254   1.007   0.938
  772SOL    HW2 6111   0.185   1.155   0.941
  773SOL     OW 6112   0.620   1.786   1.439
  773SOL    HW1 6113   0.528   1.769   1.474
  773SOL    HW2 6114   0.648   1.878   1.465
  774SOL     OW 6115   0.606   0.964   0.123
  774SOL    HW1 6116   0.613   1.048   0.069
  774SOL    HW2 6117   0.652   0.977   0.211
  775SOL     OW 6118   1.594   0.114   1.480
  775SOL    HW1 6119   1.576   0.181   1.408
  775SOL    HW2 6120   1.591   0.160   1.569
  776SOL     OW 6121   0.122   0.643   0.563
  776SOL    HW1 6122   0.077   0.555   0.580
  776SOL    HW2 6123   0.121   0.697   0.647
  777SOL     OW 6124   1.842   1.767   0.359
  777SOL    HW1 6125   1.896   1.738   0.439
  777SOL    HW2 6126   1.872   1.857   0.330
  778SOL     OW 6127   0.027   1.596   0.117
  778SOL    HW1 6128   0.008   1.500   0.138
  778SOL    HW2 6129  -0.006   1.654   0.192
  779SOL     OW 6130   1.641   1.108   0.432
  779SOL    HW1 6131   1.727   1.110   0.380
  779SOL    HW2 6132   1.655   1.155   0.520
  780SOL     OW 6133   0.613   1.365   0.726
  780SOL    HW1 6134   0.564   1.278   0.735
  780SOL    HW2 6135   0.590   1.408   0.639
  781SOL     OW 6136   1.293   1.228   1.423
  781SOL    HW1 6137   1.330   1.155   1.365
  781SOL    HW2 6138   1.345   1.233   1.508
  782SOL     OW 6139   0.809   0.004   0.502
  782SOL    HW1 6140   0.849   0.095   0.493
  782SOL    HW2 6141   0.709   0.012   0.508
  783SOL     OW 6142   0.197   0.976   1.264
  783SOL    HW1 6143   0.286   0.931   1.250
  783SOL    HW2 6144   0.124   0.911   1.245
  784SOL     OW 6145   1.525   0.999   0.190
  784SOL    HW1 6146   1.462   0.923   0.203
  784SOL    HW2 6147   1.573   1.017   0.276
  785SOL     OW 6148   1.187   1.792   1.616
  785SOL    HW1 6149   1.211   1.852   1.540
  785SOL    HW2 6150   1.194   1.697   1.586
  786SOL     OW 6151   1.466   1.417   0.953
  786SOL    HW1 6152   1.407   1.423   1.033
  786SOL    HW2 6153   1.451   1.329   0.907
  787SOL     OW 6154   1.667   1.714   0.572
  787SOL    HW1 6155   1.626   1.691   0.484
  787SOL    HW2 6156   1.649   1.640   0.637
  788SOL     OW 6157   0.598   0.729   0.270
  788SOL    HW1 6158   0.622   0.798   0.202
  788SOL    HW2 6159   0.520   0.762   0.324
  789SOL     OW 6160   1.281   0.345   0.944
  789SOL    HW1 6161   1.195   0.295   0.931
  789SOL    HW2 6162   1.343   0.291   1.000
  790SOL     OW 6163   1.576   1.662   0.307
  790SOL    HW1 6164   1.665   1.708   0.310
  790SOL    HW2 6165   1.555   1.638   0.212
  791SOL     OW 6166   0.807   0.605   1.465
  791SOL    HW1 6167   0.760   0.602   1.554
  791SOL    HW2 6168   0.756   0.550   1.399
  792SOL     OW 6169   1.394   0.469   1.674
  792SOL    HW1 6170   1.374   0.512   1.762
  792SOL    HW2 6171   1.472   0.407   1.683
  793SOL     OW 6172   0.973   0.890   1.572
  793SOL    HW1 6173   1.019   0.806   1.543
  793SOL    HW2 6174   0.917   0.924   1.497
  794SOL     OW 6175   0.991   0.410   1.242
  794SOL    HW1 6176   0.914   0.444   1.296
  794SOL    HW2 6177   0.957   0.359   1.163
  795SOL     OW 6178   1.041   0.701   0.429
  795SOL    HW1 6179   1.067   0.697   0.525
  795SOL    HW2 6180   0.956   0.650   0.415
  796SOL     OW 6181   0.076   0.811   0.789
  796SOL    HW1 6182   0.175   0.799   0.798
  796SOL    HW2 6183   0.052   0.906   0.810
  797SOL     OW 6184   0.130   1.821   1.571
  797SOL    HW1 6185   0.120   1.806   1.670
  797SOL    HW2 6186   0.044   1.857   1.535
  798SOL     OW 6187   0.865   0.348   0.195
  798SOL    HW1 6188   0.924   0.411   0.146
  798SOL    HW2 6189   0.884   0.254   0.166
  799SOL     OW 6190   1.362   1.144   0.545
  799SOL    HW1 6191   1.445   1.115   0.497
  799SOL    HW2 6192   1.313   1.211   0.489
  800SOL     OW 6193   0.550   0.196   0.885
  800SOL    HW1 6194   0.545   0.191   0.985
  800SOL    HW2 6195   0.552   0.292   0.856
  801SOL     OW 6196   1.008   1.456   0.477
  801SOL    HW1 6197   0.962   1.528   0.425
  801SOL    HW2 6198   1.004   1.476   0.575
  802SOL     OW 6199   0.351   1.801   0.853
  802SOL    HW1 6200   0.401   1.715   0.859
  802SOL    HW2 6201   0.416   1.878   0.850
  803SOL     OW 6202   1.795   1.066   0.873
  803SOL    HW1 6203   1.733   1.051   0.797
  803SOL    HW2 6204   1.743   1.077   0.958
  804SOL     OW 6205   1.227   1.550   1.506
  804SOL    HW1 6206   1.233   1.473   1.570
  804SOL    HW2 6207   1.175   1.524   1.426
  805SOL     OW 6208   0.321   0.943   0.242
  805SOL    HW1 6209   0.403   0.982   0.200
  805SOL    HW2 6210   0.294   0.861   0.193
  806SOL     OW 6211   1.458   0.735   0.728
  806SOL    HW1 6212   1.453   0.670   0.803
  806SOL    HW2 6213   1.538   0.794   0.741
  807SOL     OW 6214   0.461   1.266   1.727
  807SOL    HW1 6215   0.411   1.267   1.641
  807SOL    HW2 6216   0.398   1.248   1.803
  808SOL     OW 6217   1.111   1.776   0.237
  808SOL    HW1 6218   1.051   1.714   0.287
  808SOL    HW2 6219   1.142   1.732   0.152
  809SOL     OW 6220   1.632   1.377   0.081
  809SOL    HW1 6221   1.600   1.471   0.071
  809SOL    HW2 6222   1.556   1.314   0.069
  810SOL     OW 6223   0.464   1.743   0.323
  810SOL    HW1 6224   0.497   1.782   0.409
  810SOL    HW2 6225   0.540   1.736   0.258
  811SOL     OW 6226   1.400   0.107   0.426
  811SOL    HW1 6227   1.376   0.070   0.336
  811SOL    HW2 6228   1.499   0.123   0.430
  812SOL     OW 6229   0.249   1.785   1.241
  812SOL    HW1 6230   0.306   1.720   1.291
  812SOL    HW2 6231   0.233   1.752   1.148
  813SOL     OW 6232   0.940   1.698   0.904
  813SOL    HW1 6233   1.020   1.641   0.925
  813SOL    HW2 6234   0.891   1.658   0.827
  814SOL     OW 6235   0.382   0.700   0.480
  814SOL    HW1 6236   0.427   0.610   0.477
  814SOL    HW2 6237   0.288   0.689   0.513
  815SOL     OW 6238   1.547   0.222   1.729
  815SOL    HW1 6239   1.542   0.259   1.821
  815SOL    HW2 6240   1.475   0.153   1.717
  816SOL     OW 6241   0.614   0.122   0.117
  816SOL    HW1 6242   0.712   0.100   0.124
  816SOL    HW2 6243   0.583   0.105   0.024
  817SOL     OW 6244   0.781   0.264   1.749
  817SOL    HW1 6245   0.848   0.203   1.792
  817SOL    HW2 6246   0.708   0.283   1.814
  818SOL     OW 6247   0.888   1.514   1.195
  818SOL    HW1 6248   0.865   1.489   1.101
  818SOL    HW2 6249   0.949   1.445   1.234
  819SOL     OW 6250   1.351   0.590   1.433
  819SOL    HW1 6251   1.379   0.547   1.518
  819SOL    HW2 6252   1.376   0.686   1.434
  820SOL     OW 6253   0.803   1.402   0.924
  820SOL    HW1 6254   0.893   1.416   0.882
  820SOL    HW2 6255   0.732   1.404   0.853
  821SOL     OW 6256   0.922   0.503   0.899
  821SOL    HW1 6257   0.897   0.494   0.803
  821SOL    HW2 6258   0.970   0.421   0.930
  822SOL     OW 6259   0.539   0.064   0.512
  822SOL    HW1 6260   0.458   0.065   0.570
  822SOL    HW2 6261   0.542   0.147   0.457
  823SOL     OW 6262   1.434   1.188   0.041
  823SOL    HW1 6263   1.466   1.112   0.098
  823SOL    HW2 6264   1.342   1.215   0.071
  824SOL     OW 6265   0.297   0.035   0.171
  824SOL    HW1 6266   0.346   0.119   0.150
  824SOL    HW2 6267   0.359  -0.030   0.216
  825SOL     OW 6268   0.935   0.236   0.480
  825SOL    HW1 6269   0.887   0.277   0.402
  825SOL    HW2 6270   1.034   0.234   0.461
  826SOL     OW 6271   1.076   0.683   1.464
  826SOL    HW1 6272   0.996   0.622   1.467
  826SOL    HW2 6273   1.157   0.630   1.440
  827SOL     OW 6274   1.227   1.570   0.793
  827SOL    HW1 6275   1.248   1.644   0.728
  827SOL    HW2 6276   1.295   1.570   0.866
  828SOL     OW 6277   0.459   1.152   0.741
  828SOL    HW1 6278   0.388   1.125   0.806
  828SOL    HW2 6279   0.433   1.124   0.648
  829SOL     OW 6280   1.032   0.549   0.016
  829SOL    HW1 6281   0.991   0.631  -0.023
  829SOL    HW2 6282   1.096   0.575   0.089
  830SOL     OW 6283   0.078   0.556   1.386
  830SOL    HW1 6284   0.170   0.555   1.345
  830SOL    HW2 6285   0.072   0.630   1.453
  831SOL     OW 6286   0.561   0.222   1.147
  831SOL    HW1 6287   0.599   0.138   1.184
  831SOL    HW2 6288   0.473   0.241   1.191
  832SOL     OW 6289   0.866   0.454   0.642
  832SOL    HW1 6290   0.834   0.526   0.580
  832SOL    HW2 6291   0.890   0.373   0.589
  833SOL     OW 6292   1.017   0.039   0.753
  833SOL    HW1 6293   0.945   0.044   0.684
  833SOL    HW2 6294   0.993  -0.030   0.822
  834SOL     OW 6295   1.429   1.173   0.867
  834SOL    HW1 6296   1.374   1.089   0.860
  834SOL    HW2 6297   1.455   1.202   0.775
  835SOL     OW 6298   1.466   0.590   0.992
  835SOL    HW1 6299   1.436   0.495   0.999
  835SOL    HW2 6300   1.539   0.606   1.058
  836SOL     OW 6301   0.488   1.385   0.174
  836SOL    HW1 6302   0.401   1.370   0.221
  836SOL    HW2 6303   0.471   1.411   0.079
  837SOL     OW 6304   1.664   1.280   0.657
  837SOL    HW1 6305   1.763   1.288   0.671
  837SOL    HW2 6306   1.619   1.364   0.688
  838SOL     OW 6307   1.390   0.575   0.078
  838SOL    HW1 6308   1.336   0.554   0.159
  838SOL    HW2 6309   1.481   0.534   0.087
  839SOL     OW 6310   0.527   0.256   0.328
  839SOL    HW1 6311   0.554   0.197   0.253
  839SOL    HW2 6312   0.527   0.351   0.297
  840SOL     OW 6313   1.064   1.347   1.340
  840SOL    HW1 6314   0.984   1.324   1.395
  840SOL    HW2 6315   1.147   1.321   1.389
  841SOL     OW 6316   1.592   1.629   1.625
  841SOL    HW1 6317   1.619   1.663   1.535
  841SOL    HW2 6318   1.671   1.591   1.671
  842SOL     OW 6319   1.111   1.195   1.100
  842SOL    HW1 6320   1.071   1.239   1.181
  842SOL    HW2 6321   1.070   1.232   1.017
  843SOL     OW 6322   1.638   1.099   1.079
  843SOL    HW1 6323   1.643   1.180   1.138
  843SOL    HW2 6324   1.552   1.101   1.028
  844SOL     OW 6325   0.915   0.089   1.402
  844SOL    HW1 6326   0.940   0.069   1.307
  844SOL    HW2 6327   0.987   0.145   1.444
  845SOL     OW 6328   0.980   1.116   1.719
  845SOL    HW1 6329   0.881   1.122   1.729
  845SOL    HW2 6330   1.003   1.036   1.663
  846SOL     OW 6331   0.705   1.050   0.368
  846SOL    HW1 6332   0.691   1.057   0.467
  846SOL    HW2 6333   0.789   0.999   0.350
  847SOL     OW 6334   0.410   0.813   1.251
  847SOL    HW1 6335   0.496   0.825   1.301
  847SOL    HW2 6336   0.368   0.726   1.278
  848SOL     OW 6337   1.274   0.386   1.262
  848SOL    HW1 6338   1.295   0.460   1.326
  848SOL    HW2 6339   1.185   0.403   1.219
  849SOL     OW 6340   0.064   1.564   1.331
  849SOL    HW1 6341   0.018   1.646   1.297
  849SOL    HW2 6342   0.162   1.583   1.340
  850SOL     OW 6343   0.367   1.100   0.501
  850SOL    HW1 6344   0.360   1.183   0.445
  850SOL    HW2 6345   0.371   1.020   0.441
  851SOL     OW 6346   0.566   0.537   0.865
  851SOL    HW1 6347   0.578   0.603   0.791
  851SOL    HW2 6348   0.612   0.571   0.948
  852SOL     OW 6349   1.252   1.348   0.388
  852SOL    HW1 6350   1.302   1.425   0.428
  852SOL    HW2 6351   1.157   1.350   0.420
  853SOL     OW 6352   1.272   1.445   1.142
  853SOL    HW1 6353   1.319   1.458   1.229
  853SOL    HW2 6354   1.206   1.371   1.151
  854SOL     OW 6355   1.582   0.639   0.472
  854SOL    HW1 6356   1.551   0.700   0.545
  854SOL    HW2 6357   1.632   0.691   0.403
  855SOL     OW 6358   0.354   1.510   1.329
  855SOL    HW1 6359   0.333   1.466   1.242
  855SOL    HW2 6360   0.451   1.536   1.332
  856SOL     OW 6361   1.013   0.105   1.770
  856SOL    HW1 6362   1.019   0.190   1.718
  856SOL    HW2 6363   1.045   0.029   1.713
  857SOL     OW 6364   0.504   0.050   1.740
  857SOL    HW1 6365   0.462  -0.007   1.670
  857SOL    HW2 6366   0.438   0.119   1.772
  858SOL     OW 6367   0.573   0.870   1.029
  858SOL    HW1 6368   0.617   0.959   1.020
  858SOL    HW2 6369   0.510   0.870   1.106
  859SOL     OW 6370   1.360   0.862   1.045
  859SOL    HW1 6371   1.285   0.862   0.979
  859SOL    HW2 6372   1.397   0.770   1.054
  860SOL     OW 6373   1.209   0.525   0.275
  860SOL    HW1 6374   1.222   0.441   0.329
  860SOL    HW2 6375   1.180   0.599   0.335
  861SOL     OW 6376   0.037   1.310   1.282
  861SOL    HW1 6377   0.090   1.261   1.350
  861SOL    HW2 6378   0.059   1.408   1.287
  862SOL     OW 6379   0.732   0.634   1.064
  862SOL    HW1 6380   0.791   0.608   0.988
  862SOL    HW2 6381   0.704   0.730   1.053
  863SOL     OW 6382   0.307   0.063   0.618
  863SOL    HW1 6383   0.296   0.157   0.651
  863SOL    HW2 6384   0.302   0.000   0.695
  864SOL     OW 6385   1.622   0.367   0.374
  864SOL    HW1 6386   1.624   0.291   0.438
  864SOL    HW2 6387   1.574   0.444   0.414
  865SOL     OW 6388   1.023   0.766   0.966
  865SOL    HW1 6389   1.038   0.787   1.062
  865SOL    HW2 6390   0.993   0.671   0.957
  866SOL     OW 6391   0.980   1.573   1.700
  866SOL    HW1 6392   0.960   1.617   1.612
  866SOL    HW2 6393   1.019   1.482   1.684
  867SOL     OW 6394   1.859   1.518   1.605
  867SOL    HW1 6395   1.873   1.545   1.510
  867SOL    HW2 6396   1.942   1.540   1.658
  868SOL     OW 6397   1.540   0.274   0.125
  868SOL    HW1 6398   1.479   0.199   0.148
  868SOL    HW2 6399   1.562   0.326   0.208
  869SOL     OW 6400   1.303   0.838   0.042
  869SOL    HW1 6401   1.337   0.745   0.057
  869SOL    HW2 6402   1.321   0.865  -0.053
  870SOL     OW 6403   1.068   1.333   0.849
  870SOL    HW1 6404   1.075   1.249   0.794
  870SOL    HW2 6405   1.130   1.402   0.813
  871SOL     OW 6406   0.319   0.810   0.949
  871SOL    HW1 6407   0.412   0.846   0.954
  871SOL    HW2 6408   0.313   0.725   1.001
  872SOL     OW 6409   0.339   0.509   1.006
  872SOL    HW1 6410   0.287   0.426   0.989
  872SOL    HW2 6411   0.416   0.514   0.942
  873SOL     OW 6412   1.138   0.380   1.678
  873SOL    HW1 6413   1.093   0.443   1.742
  873SOL    HW2 6414   1.231   0.411   1.661
  874SOL     OW 6415   1.160   0.207   1.477
  874SOL    HW1 6416   1.160   0.271   1.554
  874SOL    HW2 6417   1.188   0.255   1.394
  875SOL     OW 6418   0.008   1.326   0.200
  875SOL    HW1 6419  -0.085   1.347   0.169
  875SOL    HW2 6420   0.018   1.227   0.213
  876SOL     OW 6421   0.088   1.801   0.927
  876SOL    HW1 6422   0.046   1.715   0.900
  876SOL    HW2 6423   0.182   1.804   0.893
  877SOL     OW 6424   0.504   1.568   0.910
  877SOL    HW1 6425   0.570   1.642   0.919
  877SOL    HW2 6426   0.548   1.489   0.868
  878SOL     OW 6427   1.002   0.796   1.238
  878SOL    HW1 6428   1.043   0.764   1.324
  878SOL    HW2 6429   0.906   0.769   1.235
  879SOL     OW 6430   0.040   0.544   1.114
  879SOL    HW1 6431   0.125   0.511   1.073
  879SOL    HW2 6432   0.053   0.559   1.212
  880SOL     OW 6433   1.369   0.950   1.660
  880SOL    HW1 6434   1.408   1.039   1.680
  880SOL    HW2 6435   1.379   0.930   1.563
  881SOL     OW 6436   0.815   0.572   0.325
  881SOL    HW1 6437   0.822   0.483   0.279
  881SOL    HW2 6438   0.721   0.606   0.317
  882SOL     OW 6439   1.657   0.604   1.206
  882SOL    HW1 6440   1.619   0.535   1.268
  882SOL    HW2 6441   1.739   0.568   1.162
  883SOL     OW 6442   0.252   1.564   1.744
  883SOL    HW1 6443   0.222   1.621   1.820
  883SOL    HW2 6444   0.245   1.467   1.770
  884SOL     OW 6445   0.671   0.464   1.269
  884SOL    HW1 6446   0.637   0.375   1.239
  884SOL    HW2 6447   0.697   0.518   1.189
  885SOL     OW 6448   0.930   1.678   1.465
  885SOL    HW1 6449   0.906   1.660   1.370
  885SOL    HW2 6450   0.960   1.772   1.475
  886SOL     OW 6451   0.159   1.137   1.466
  886SOL    HW1 6452   0.181   1.076   1.542
  886SOL    HW2 6453   0.169   1.088   1.380
  887SOL     OW 6454   1.347   1.059   1.234
  887SOL    HW1 6455   1.371   0.996   1.160
  887SOL    HW2 6456   1.257   1.099   1.216
  888SOL     OW 6457   1.302   0.855   0.309
  888SOL    HW1 6458   1.216   0.824   0.351
  888SOL    HW2 6459   1.298   0.841   0.210
  889SOL     OW 6460   1.759   1.747   1.154
  889SOL    HW1 6461   1.820   1.777   1.081
  889SOL    HW2 6462   1.721   1.658   1.132
  890SOL     OW 6463   1.252   1.731   1.128
  890SOL    HW1 6464   1.336   1.736   1.074
  890SOL    HW2 6465   1.229   1.635   1.146
  891SOL     OW 6466   0.083   1.258   1.022
  891SOL    HW1 6467   0.078   1.257   1.122
  891SOL    HW2 6468   0.000   1.217   0.984
  892SOL     OW 6469   0.688   1.662   1.716
  892SOL    HW1 6470   0.632   1.743   1.725
  892SOL    HW2 6471   0.740   1.666   1.630
  893SOL     OW 6472   0.903   0.086   0.133
  893SOL    HW1 6473   0.954   0.087   0.047
  893SOL    HW2 6474   0.959   0.044   0.204
  894SOL     OW 6475   1.726   0.135   0.523
  894SOL    HW1 6476   1.799   0.118   0.456
  894SOL    HW2 6477   1.695   0.048   0.561
  895SOL     OW 6478   1.388   1.573   0.477
  895SOL    HW1 6479   1.455   1.585   0.403
  895SOL    HW2 6480   1.348   1.662   0.500
  896SOL     OW 6481   0.130   1.794   1.851
  896SOL    HW1 6482   0.089   1.720   1.904
  896SOL    HW2 6483   0.194   1.845   1.909
  897SOL     OW 6484   1.280   0.927   0.672
  897SOL    HW1 6485   1.340   0.846   0.674
  897SOL    HW2 6486   1.320   0.996   0.612
  898SOL     OW 6487   0.830   1.273   1.422
  898SOL    HW1 6488   0.825   1.306   1.517
  898SOL    HW2 6489   0.744   1.292   1.376
  899SOL     OW 6490   0.672   1.616   0.154
  899SOL    HW1 6491   0.681   1.626   0.055
  899SOL    HW2 6492   0.632   1.527   0.175
  900SOL     OW 6493   1.650   1.720   1.394
  900SOL    HW1 6494   1.703   1.730   1.310
  900SOL    HW2 6495   1.623   1.810   1.428
  901SOL     OW 6496   1.841   0.175   0.963
  901SOL    HW1 6497   1.880   0.090   0.927
  901SOL    HW2 6498   1.743   0.177   0.944
  902SOL     OW 6499   0.263   0.326   0.720
  902SOL    HW1 6500   0.184   0.377   0.686
  902SOL    HW2 6501   0.254   0.311   0.818
  903SOL     OW 6502   1.194   1.612   0.031
  903SOL    HW1 6503   1.200   1.519   0.068
  903SOL    HW2 6504   1.135   1.612  -0.049
  904SOL     OW 6505   0.822   1.002   1.372
  904SOL    HW1 6506   0.862   1.001   1.280
  904SOL    HW2 6507   0.832   1.094   1.412
  905SOL     OW 6508   0.916   0.910   0.291
  905SOL    HW1 6509   0.979   0.948   0.223
  905SOL    HW2 6510   0.956   0.827   0.330
  906SOL     OW 6511   1.504   1.607   0.044
  906SOL    HW1 6512   1.412   1.644   0.051
  906SOL    HW2 6513   1.542   1.627  -0.046
  907SOL     OW 6514   0.372   1.288   1.490
  907SOL    HW1 6515   0.359   1.381   1.456
  907SOL    HW2 6516   0.288   1.236   1.477
  908SOL     OW 6517   1.614   1.292   1.289
  908SOL    HW1 6518   1.674   1.295   1.369
  908SOL    HW2 6519   1.539   1.356   1.302
  909SOL     OW 6520   1.039   1.098   0.696
  909SOL    HW1 6521   0.969   1.051   0.750
  909SOL    HW2 6522   1.098   1.030   0.653
  910SOL     OW 6523   1.014   0.236   0.971
  910SOL    HW1 6524   1.006   0.200   0.878
  910SOL    HW2 6525   1.012   0.160   1.036
  911SOL     OW 6526   0.590   1.487   0.491
  911SOL    HW1 6527   0.632   1.429   0.421
  911SOL    HW2 6528   0.546   1.566   0.447
  912SOL     OW 6529   1.709   0.385   1.381
  912SOL    HW1 6530   1.782   0.454   1.385
  912SOL    HW2 6531   1.737   0.310   1.322
  913SOL     OW 6532   0.255   1.348   0.290
  913SOL    HW1 6533   0.159   1.349   0.263
  913SOL    HW2 6534   0.267   1.401   0.374
  914SOL     OW 6535   0.105   1.013   1.726
  914SOL    HW1 6536   0.028   0.980   1.780
  914SOL    HW2 6537   0.190   0.983   1.768
  915SOL     OW 6538   0.672   0.203   1.489
  915SOL    HW1 6539   0.762   0.187   1.449
  915SOL    HW2 6540   0.680   0.208   1.588
  916SOL     OW 6541   1.440   0.856   1.398
  916SOL    HW1 6542   1.383   0.908   1.335
  916SOL    HW2 6543   1.536   0.868   1.374
  917SOL     OW 6544   0.072   0.166   0.318
  917SOL    HW1 6545   0.055   0.249   0.264
  917SOL    HW2 6546   0.162   0.129   0.296
  918SOL     OW 6547   1.183   1.335   0.119
  918SOL    HW1 6548   1.084   1.324   0.121
  918SOL    HW2 6549   1.217   1.350   0.212
  919SOL     OW 6550   0.613   0.842   1.431
  919SOL    HW1 6551   0.669   0.923   1.414
  919SOL    HW2 6552   0.672   0.762   1.434
  920SOL     OW 6553   1.493   1.767   0.959
  920SOL    HW1 6554   1.526   1.831   0.890
  920SOL    HW2 6555   1.559   1.761   1.034
  921SOL     OW 6556   0.716   0.565   1.708
  921SOL    HW1 6557   0.735   0.630   1.782
  921SOL    HW2 6558   0.776   0.485   1.717
  922SOL     OW 6559   0.390   1.741   1.560
  922SOL    HW1 6560   0.299   1.782   1.558
  922SOL    HW2 6561   0.383   1.647   1.592
  923SOL     OW 6562   1.674   0.883   1.254
  923SOL    HW1 6563   1.647   0.794   1.217
  923SOL    HW2 6564   1.675   0.951   1.181
  924SOL     OW 6565   1.225   0.325   0.449
  924SOL    HW1 6566   1.290   0.251   0.438
  924SOL    HW2 6567   1.245   0.375   0.533
  925SOL     OW 6568   0.594   0.745   0.652
  925SOL    HW1 6569   0.644   0.830   0.633
  925SOL    HW2 6570   0.506   0.747   0.604
  926SOL     OW 6571   1.777   0.342   1.642
  926SOL    HW1 6572   1.760   0.373   1.548
  926SOL    HW2 6573   1.693   0.305   1.680
  927SOL     OW 6574   0.859   1.374   0.016
  927SOL    HW1 6575   0.813   1.389   0.104
  927SOL    HW2 6576   0.903   1.459  -0.014
  928SOL     OW 6577   0.661   1.790   0.953
  928SOL    HW1 6578   0.615   1.878   0.940
  928SOL    HW2 6579   0.760   1.802   0.946
  929SOL     OW 6580   0.859   0.956   0.861
  929SOL    HW1 6581   0.913   0.887   0.909
  929SOL    HW2 6582   0.827   1.025   0.927
  930SOL     OW 6583   1.083   0.984   0.087
  930SOL    HW1 6584   1.060   1.037   0.005
  930SOL    HW2 6585   1.164   0.928   0.068
  931SOL     OW 6586   1.861   1.569   0.851
  931SOL    HW1 6587   1.790   1.557   0.781
  931SOL    HW2 6588   1.862   1.490   0.911
  932SOL     OW 6589   0.221   1.314   1.844
  932SOL    HW1 6590   0.156   1.241   1.823
  932SOL    HW2 6591   0.225   1.328   1.942
  933SOL     OW 6592   0.079   1.240   0.653
  933SOL    HW1 6593   0.078   1.193   0.741
  933SOL    HW2 6594   0.161   1.212   0.602
  934SOL     OW 6595   0.672   1.391   1.624
  934SOL    HW1 6596   0.594   1.341   1.662
  934SOL    HW2 6597   0.669   1.486   1.655
  935SOL     OW 6598   1.824   0.192   1.227
  935SOL    HW1 6599   1.820   0.102   1.271
  935SOL    HW2 6600   1.827   0.181   1.128
  936SOL     OW 6601   0.428   0.424   0.520
  936SOL    HW1 6602   0.458   0.352   0.458
  936SOL    HW2 6603   0.389   0.384   0.603
  937SOL     OW 6604   1.705   1.487   1.104
  937SOL    HW1 6605   1.612   1.462   1.077
  937SOL    HW2 6606   1.731   1.437   1.186
  938SOL     OW 6607   0.317   0.547   1.280
  938SOL    HW1 6608   0.355   0.488   1.352
  938SOL    HW2 6609   0.357   0.521   1.192
  939SOL     OW 6610   0.812   1.586   0.687
  939SOL    HW1 6611   0.844   1.596   0.593
  939SOL    HW2 6612   0.733   1.524   0.689
  940SOL     OW 6613   1.424   0.214   1.112
  940SOL    HW1 6614   1.476   0.149   1.167
  940SOL    HW2 6615   1.375   0.277   1.173
  941SOL     OW 6616   1.001   0.034   1.154
  941SOL    HW1 6617   0.938  -0.038   1.123
  941SOL    HW2 6618   1.094  -0.002   1.154
  942SOL     OW 6619   0.770   1.330   0.301
  942SOL    HW1 6620   0.724   1.243   0.318
  942SOL    HW2 6621   0.861   1.327   0.342
  943SOL     OW 6622   0.618   1.567   1.284
  943SOL    HW1 6623   0.613   1.649   1.341
  943SOL    HW2 6624   0.707   1.564   1.239
  944SOL     OW 6625   1.352   0.052   0.168
  944SOL    HW1 6626   1.387   0.011   0.084
  944SOL    HW2 6627   1.262   0.014   0.188
  945SOL     OW 6628   1.300   0.453   0.691
  945SOL    HW1 6629   1.241   0.533   0.695
  945SOL    HW2 6630   1.315   0.418   0.784
  946SOL     OW 6631   1.593   0.221   0.882
  946SOL    HW1 6632   1.509   0.220   0.936
  946SOL    HW2 6633   1.595   0.304   0.826
  947SOL     OW 6634   0.039   1.077   0.300
  947SOL    HW1 6635   0.138   1.066   0.291
  947SOL    HW2 6636  -0.001   0.991   0.332
  948SOL     OW 6637   0.875   1.646   0.337
  948SOL    HW1 6638   0.798   1.611   0.283
  948SOL    HW2 6639   0.843   1.717   0.399
  949SOL     OW 6640   0.225   0.275   2.858
  949SOL    HW1 6641   0.260   0.258   2.950
  949SOL    HW2 6642   0.137   0.230   2.846
  950SOL     OW 6643   0.019   0.368   2.509
  950SOL    HW1 6644  -0.063   0.411   2.548
  950SOL    HW2 6645  -0.009   0.295   2.446
  951SOL     OW 6646   0.569   1.275   3.027
  951SOL    HW1 6647   0.476   1.268   2.990
  951SOL    HW2 6648   0.580   1.364   3.071
  952SOL     OW 6649   1.555   1.511   2.565
  952SOL    HW1 6650   1.498   1.495   2.646
  952SOL    HW2 6651   1.496   1.521   2.485
  953SOL     OW 6652   1.135   0.703   2.579
  953SOL    HW1 6653   1.192   0.781   2.554
  953SOL    HW2 6654   1.075   0.729   2.655
  954SOL     OW 6655   0.768   1.144   2.885
  954SOL    HW1 6656   0.690   1.161   2.945
  954SOL    HW2 6657   0.802   1.231   2.849
  955SOL     OW 6658   0.850   0.798   3.685
  955SOL    HW1 6659   0.846   0.874   3.750
  955SOL    HW2 6660   0.872   0.834   3.594
  956SOL     OW 6661   0.685   1.012   2.527
  956SOL    HW1 6662   0.754   0.996   2.597
  956SOL    HW2 6663   0.612   1.069   2.565
  957SOL     OW 6664   0.686   1.161   3.665
  957SOL    HW1 6665   0.746   1.240   3.679
  957SOL    HW2 6666   0.600   1.192   3.624
  958SOL     OW 6667   0.335   1.435   2.923
  958SOL    HW1 6668   0.257   1.404   2.870
  958SOL    HW2 6669   0.393   1.493   2.866
  959SOL     OW 6670   1.460   1.505   3.201
  959SOL    HW1 6671   1.484   1.599   3.227
  959SOL    HW2 6672   1.444   1.451   3.283
  960SOL     OW 6673   1.603   0.447   2.599
  960SOL    HW1 6674   1.529   0.493   2.549
  960SOL    HW2 6675   1.654   0.515   2.652
  961SOL     OW 6676   0.231   1.713   2.345
  961SOL    HW1 6677   0.265   1.790   2.399
  961SOL    HW2 6678   0.275   1.713   2.255
  962SOL     OW 6679   1.127   1.341   3.552
  962SOL    HW1 6680   1.174   1.341   3.640
  962SOL    HW2 6681   1.079   1.254   3.541
  963SOL     OW 6682   0.230   1.434   2.400
  963SOL    HW1 6683   0.204   1.530   2.400
  963SOL    HW2 6684   0.159   1.380   2.445
  964SOL     OW 6685   0.240   1.091   2.748
  964SOL    HW1 6686   0.254   1.007   2.800
  964SOL    HW2 6687   0.185   1.155   2.803
  965SOL     OW 6688   0.620   1.786   3.301
  965SOL    HW1 6689   0.528   1.769   3.336
  965SOL    HW2 6690   0.648   1.878   3.327
  966SOL     OW 6691   0.606   0.964   1.985
  966SOL    HW1 6692   0.613   1.048   1.931
  966SOL    HW2 6693   0.652   0.977   2.073
  967SOL     OW 6694   1.594   0.114   3.342
  967SOL    HW1 6695   1.576   0.181   3.270
  967SOL    HW2 6696   1.591   0.160   3.431
  968SOL     OW 6697   0.122   0.643   2.425
  968SOL    HW1 6698   0.077   0.555   2.442
  968SOL    HW2 6699   0.121   0.697   2.509
  969SOL     OW 6700   1.842   1.767   2.221
  969SOL    HW1 6701   1.896   1.738   2.301
  969SOL    HW2 6702   1.872   1.857   2.192
  970SOL     OW 6703   0.027   1.596   1.979
  970SOL    HW1 6704   0.008   1.500   2.000
  970SOL    HW2 6705  -0.006   1.654   2.054
  971SOL     OW 6706   1.689   0.922   2.474
  971SOL    HW1 6707   1.784   0.893   2.482
  971SOL    HW2 6708   1.681   0.987   2.399
  972SOL     OW 6709   1.641   1.108   2.294
  972SOL    HW1 6710   1.727   1.110   2.242
  972SOL    HW2 6711   1.655   1.155   2.382
  973SOL     OW 6712   0.113   0.737   3.459
  973SOL    HW1 6713   0.201   0.724   3.504
  973SOL    HW2 6714   0.100   0.834   3.437
  974SOL     OW 6715   0.613   1.365   2.588
  974SOL    HW1 6716   0.564   1.278   2.597
  974SOL    HW2 6717   0.590   1.408   2.501
  975SOL     OW 6718   1.293   1.228   3.285
  975SOL    HW1 6719   1.330   1.155   3.227
  975SOL    HW2 6720   1.345   1.233   3.370
  976SOL     OW 6721   0.809   0.004   2.364
  976SOL    HW1 6722   0.849   0.095   2.355
  976SOL    HW2 6723   0.709   0.012   2.370
  977SOL     OW 6724   0.197   0.976   3.126
  977SOL    HW1 6725   0.286   0.931   3.112
  977SOL    HW2 6726   0.124   0.911   3.107
  978SOL     OW 6727   1.525   0.999   2.052
  978SOL    HW1 6728   1.462   0.923   2.065
  978SOL    HW2 6729   1.573   1.017   2.138
  979SOL     OW 6730   1.187   1.792   3.478
  979SOL    HW1 6731   1.211   1.852   3.402
  979SOL    HW2 6732   1.194   1.697   3.448
  980SOL     OW 6733   1.466   1.417   2.815
  980SOL    HW1 6734   1.407   1.423   2.895
  980SOL    HW2 6735   1.451   1.329   2.769
  981SOL     OW 6736   1.667   1.714   2.434
  981SOL    HW1 6737   1.626   1.691   2.346
  981SOL    HW2 6738   1.649   1.640   2.499
  982SOL     OW 6739   0.598   0.729   2.132
  982SOL    HW1 6740   0.622   0.798   2.064
  982SOL    HW2 6741   0.520   0.762   2.186
  983SOL     OW 6742   1.281   0.345   2.806
  983SOL    HW1 6743   1.195   0.295   2.793
  983SOL    HW2 6744   1.343   0.291   2.862
  984SOL     OW 6745   1.576   1.662   2.169
  984SOL    HW1 6746   1.665   1.708   2.172
  984SOL    HW2 6747   1.555   1.638   2.074
  985SOL     OW 6748   0.807   0.605   3.327
  985SOL    HW1 6749   0.760   0.602   3.416
  985SOL    HW2 6750   0.756   0.550   3.261
  986SOL     OW 6751   1.394   0.469   3.536
  986SOL    HW1 6752   1.374   0.512   3.624
  986SOL    HW2 6753   1.472   0.407   3.545
  987SOL     OW 6754   0.973   0.890   3.434
  987SOL    HW1 6755   1.019   0.806   3.405
  987SOL    HW2 6756   0.917   0.924   3.359
  988SOL     OW 6757   0.991   0.410   3.104
  988SOL    HW1 6758   0.914   0.444   3.158
  988SOL    HW2 6759   0.957   0.359   3.025
  989SOL     OW 6760   1.041   0.701   2.291
  989SOL    HW1 6761   1.067   0.697   2.387
  989SOL    HW2 6762   0.956   0.650   2.277
  990SOL     OW 6763   0.076   0.811   2.651
  990SOL    HW1 6764   0.175   0.799   2.660
  990SOL    HW2 6765   0.052   0.906   2.672
  991SOL     OW 6766   0.130   1.821   3.433
  991SOL    HW1 6767   0.120   1.806   3.532
  991SOL    HW2 6768   0.044   1.857   3.397
  992SOL     OW 6769   0.865   0.348   2.057
  992SOL    HW1 6770   0.924   0.411   2.008
  992SOL    HW2 6771   0.884   0.254   2.028
  993SOL     OW 6772   1.719   0.585   3.693
  993SOL    HW1 6773   1.693   0.674   3.657
  993SOL    HW2 6774   1.717   0.517   3.620
  994SOL     OW 6775   1.362   1.144   2.407
  994SOL    HW1 6776   1.445   1.115   2.359
  994SOL    HW2 6777   1.313   1.211   2.351
  995SOL     OW 6778   0.550   0.196   2.747
  995SOL    HW1 6779   0.545   0.191   2.847
  995SOL    HW2 6780   0.552   0.292   2.718
  996SOL     OW 6781   1.008   1.456   2.339
  996SOL    HW1 6782   0.962   1.528   2.287
  996SOL    HW2 6783   1.004   1.476   2.437
  997SOL     OW 6784   0.351   1.801   2.715
  997SOL    HW1 6785   0.401   1.715   2.721
  997SOL    HW2 6786   0.416   1.878   2.712
  998SOL     OW 6787   1.227   1.550   3.368
  998SOL    HW1 6788   1.233   1.473   3.432
  998SOL    HW2 6789   1.175   1.524   3.288
  999SOL     OW 6790   0.461   1.266   3.589
  999SOL    HW1 6791   0.411   1.267   3.503
  999SOL    HW2 6792   0.398   1.248   3.665
 1000SOL     OW 6793   1.111   1.776   2.099
 1000SOL    HW1 6794   1.051   1.714   2.149
 1000SOL    HW2 6795   1.142   1.732   2.014
 1001SOL     OW 6796   1.632   1.377   1.943
 1001SOL    HW1 6797   1.600   1.471   1.933
 1001SOL    HW2 6798   1.556   1.314   1.931
 1002SOL     OW 6799   0.464   1.743   2.185
 1002SOL    HW1 6800   0.497   1.782   2.271
 1002SOL    HW2 6801   0.540   1.736   2.120
 1003SOL     OW 6802   1.400   0.107   2.288
 1003SOL    HW1 6803   1.376   0.070   2.198
 1003SOL    HW2 6804   1.499   0.123   2.292
 1004SOL     OW 6805   0.249   1.785   3.103
 1004SOL    HW1 6806   0.306   1.720   3.153
 1004SOL    HW2 6807   0.233   1.752   3.010
 1005SOL     OW 6808   0.940   1.698   2.766
 1005SOL    HW1 6809   1.020   1.641   2.787
 1005SOL    HW2 6810   0.891   1.658   2.689
 1006SOL     OW 6811   0.382   0.700   2.342
 1006SOL    HW1 6812   0.427   0.610   2.339
 1006SOL    HW2 6813   0.288   0.689   2.375
 1007SOL     OW 6814   1.547   0.222   3.591
 1007SOL    HW1 6815   1.542   0.259   3.683
 1007SOL    HW2 6816   1.475   0.153   3.579
 1008SOL     OW 6817   0.614   0.122   1.979
 1008SOL    HW1 6818   0.712   0.100   1.986
 1008SOL    HW2 6819   0.583   0.105   1.886
 1009SOL     OW 6820   0.781   0.264   3.611
 1009SOL    HW1 6821   0.848   0.203   3.654
 1009SOL    HW2 6822   0.708   0.283   3.676
 1010SOL     OW 6823   0.888   1.514   3.057
 1010SOL    HW1 6824   0.865   1.489   2.963
 1010SOL    HW2 6825   0.949   1.445   3.096
 1011SOL     OW 6826   1.351   0.590   3.295
 1011SOL    HW1 6827   1.379   0.547   3.380
 1011SOL    HW2 6828   1.376   0.686   3.296
 1012SOL     OW 6829   0.803   1.402   2.786
 1012SOL    HW1 6830   0.893   1.416   2.744
 1012SOL    HW2 6831   0.732   1.404   2.715
 1013SOL     OW 6832   0.922   0.503   2.761
 1013SOL    HW1 6833   0.897   0.494   2.665
 1013SOL    HW2 6834   0.970   0.421   2.792
 1014SOL     OW 6835   0.539   0.064   2.374
 1014SOL    HW1 6836   0.458   0.065   2.432
 1014SOL    HW2 6837   0.542   0.147   2.319
 1015SOL     OW 6838   1.434   1.188   1.903
 1015SOL    HW1 6839   1.466   1.112   1.960
 1015SOL    HW2 6840   1.342   1.215   1.933
 1016SOL     OW 6841   0.297   0.035   2.033
 1016SOL    HW1 6842   0.346   0.119   2.012
 1016SOL    HW2 6843   0.359  -0.030   2.078
 1017SOL     OW 6844   0.935   0.236   2.342
 1017SOL    HW1 6845   0.887   0.277   2.264
 1017SOL    HW2 6846   1.034   0.234   2.323
 1018SOL     OW 6847   1.076   0.683   3.326
 1018SOL    HW1 6848   0.996   0.622   3.329
 1018SOL    HW2 6849   1.157   0.630   3.302
 1019SOL     OW 6850   1.227   1.570   2.655
 1019SOL    HW1 6851   1.248   1.644   2.590
 1019SOL    HW2 6852   1.295   1.570   2.728
 1020SOL     OW 6853   0.459   1.152   2.603
 1020SOL    HW1 6854   0.388   1.125   2.668
 1020SOL    HW2 6855   0.433   1.124   2.510
 1021SOL     OW 6856   1.271   1.797   2.453
 1021SOL    HW1 6857   1.315   1.861   2.389
 1021SOL    HW2 6858   1.221   1.849   2.523
 1022SOL     OW 6859   1.032   0.549   1.878
 1022SOL    HW1 6860   0.991   0.631   1.839
 1022SOL    HW2 6861   1.096   0.575   1.951
 1023SOL     OW 6862   0.078   0.556   3.248
 1023SOL    HW1 6863   0.170   0.555   3.207
 1023SOL    HW2 6864   0.072   0.630   3.315
 1024SOL     OW 6865   0.561   0.222   3.009
 1024SOL    HW1 6866   0.599   0.138   3.046
 1024SOL    HW2 6867   0.473   0.241   3.053
 1025SOL     OW 6868   0.866   0.454   2.504
 1025SOL    HW1 6869   0.834   0.526   2.442
 1025SOL    HW2 6870   0.890   0.373   2.451
 1026SOL     OW 6871   1.017   0.039   2.615
 1026SOL    HW1 6872   0.945   0.044   2.546
 1026SOL    HW2 6873   0.993  -0.030   2.684
 1027SOL     OW 6874   1.429   1.173   2.729
 1027SOL    HW1 6875   1.374   1.089   2.722
 1027SOL    HW2 6876   1.455   1.202   2.637
 1028SOL     OW 6877   1.466   0.590   2.854
 1028SOL    HW1 6878   1.436   0.495   2.861
 1028SOL    HW2 6879   1.539   0.606   2.920
 1029SOL     OW 6880   1.857   0.833   2.239
 1029SOL    HW1 6881   1.899   0.769   2.303
 1029SOL    HW2 6882   1.819   0.782   2.161
 1030SOL     OW 6883   0.488   1.385   2.036
 1030SOL    HW1 6884   0.401   1.370   2.083
 1030SOL    HW2 6885   0.471   1.411   1.941
 1031SOL     OW 6886   1.664   1.280   2.519
 1031SOL    HW1 6887   1.763   1.288   2.533
 1031SOL    HW2 6888   1.619   1.364   2.550
 1032SOL     OW 6889   1.390   0.575   1.940
 1032SOL    HW1 6890   1.336   0.554   2.021
 1032SOL    HW2 6891   1.481   0.534   1.949
 1033SOL     OW 6892   0.527   0.256   2.190
 1033SOL    HW1 6893   0.554   0.197   2.115
 1033SOL    HW2 6894   0.527   0.351   2.159
 1034SOL     OW 6895   1.754   1.223   3.450
 1034SOL    HW1 6896   1.845   1.184   3.437
 1034SOL    HW2 6897   1.762   1.319   3.474
 1035SOL     OW 6898   1.064   1.347   3.202
 1035SOL    HW1 6899   0.984   1.324   3.257
 1035SOL    HW2 6900   1.147   1.321   3.251
 1036SOL     OW 6901   1.592   1.629   3.487
 1036SOL    HW1 6902   1.619   1.663   3.397
 1036SOL    HW2 6903   1.671   1.591   3.533
 1037SOL     OW 6904   1.111   1.195   2.962
 1037SOL    HW1 6905   1.071   1.239   3.043
 1037SOL    HW2 6906   1.070   1.232   2.879
 1038SOL     OW 6907   0.915   0.089   3.264
 1038SOL    HW1 6908   0.940   0.069   3.169
 1038SOL    HW2 6909   0.987   0.145   3.306
 1039SOL     OW 6910   0.980   1.116   3.581
 1039SOL    HW1 6911   0.881   1.122   3.591
 1039SOL    HW2 6912   1.003   1.036   3.525
 1040SOL     OW 6913   0.705   1.050   2.230
 1040SOL    HW1 6914   0.691   1.057   2.329
 1040SOL    HW2 6915   0.789   0.999   2.212
 1041SOL     OW 6916   0.410   0.813   3.113
 1041SOL    HW1 6917   0.496   0.825   3.163
 1041SOL    HW2 6918   0.368   0.726   3.140
 1042SOL     OW 6919   1.274   0.386   3.124
 1042SOL    HW1 6920   1.295   0.460   3.188
 1042SOL    HW2 6921   1.185   0.403   3.081
 1043SOL     OW 6922   0.064   1.564   3.193
 1043SOL    HW1 6923   0.018   1.646   3.159
 1043SOL    HW2 6924   0.162   1.583   3.202
 1044SOL     OW 6925   0.367   1.100   2.363
 1044SOL    HW1 6926   0.360   1.183   2.307
 1044SOL    HW2 6927   0.371   1.020   2.303
 1045SOL     OW 6928   0.566   0.537   2.727
 1045SOL    HW1 6929   0.578   0.603   2.653
 1045SOL    HW2 6930   0.612   0.571   2.810
 1046SOL     OW 6931   1.252   1.348   2.250
 1046SOL    HW1 6932   1.302   1.425   2.290
 1046SOL    HW2 6933   1.157   1.350   2.282
 1047SOL     OW 6934   1.272   1.445   3.004
 1047SOL    HW1 6935   1.319   1.458   3.091
 1047SOL    HW2 6936   1.206   1.371   3.013
 1048SOL     OW 6937   1.582   0.639   2.334
 1048SOL    HW1 6938   1.551   0.700   2.407
 1048SOL    HW2 6939   1.632   0.691   2.265
 1049SOL     OW 6940   0.354   1.510   3.191
 1049SOL    HW1 6941   0.333   1.466   3.104
 1049SOL    HW2 6942   0.451   1.536   3.194
 1050SOL     OW 6943   0.402   0.751   3.460
 1050SOL    HW1 6944   0.470   0.806   3.413
 1050SOL    HW2 6945   0.442   0.663   3.487
 1051SOL     OW 6946   1.587   0.779   3.532
 1051SOL    HW1 6947   1.495   0.817   3.527
 1051SOL    HW2 6948   1.647   0.826   3.467
 1052SOL     OW 6949   1.013   0.105   3.632
 1052SOL    HW1 6950   1.019   0.190   3.580
 1052SOL    HW2 6951   1.045   0.029   3.575
 1053SOL     OW 6952   0.573   0.870   2.891
 1053SOL    HW1 6953   0.617   0.959   2.882
 1053SOL    HW2 6954   0.510   0.870   2.968
 1054SOL     OW 6955   1.209   0.525   2.137
 1054SOL    HW1 6956   1.222   0.441   2.191
 1054SOL    HW2 6957   1.180   0.599   2.197
 1055SOL     OW 6958   0.307   0.213   3.093
 1055SOL    HW1 6959   0.284   0.250   3.183
 1055SOL    HW2 6960   0.277   0.118   3.087
 1056SOL     OW 6961   0.037   1.310   3.144
 1056SOL    HW1 6962   0.090   1.261   3.212
 1056SOL    HW2 6963   0.059   1.408   3.149
 1057SOL     OW 6964   0.732   0.634   2.926
 1057SOL    HW1 6965   0.791   0.608   2.850
 1057SOL    HW2 6966   0.704   0.730   2.915
 1058SOL     OW 6967   1.728   0.935   3.716
 1058SOL    HW1 6968   1.682   0.928   3.627
 1058SOL    HW2 6969   1.666   0.979   3.782
 1059SOL     OW 6970   0.307   0.063   2.480
 1059SOL    HW1 6971   0.296   0.157   2.513
 1059SOL    HW2 6972   0.302   0.000   2.557
 1060SOL     OW 6973   1.622   0.367   2.236
 1060SOL    HW1 6974   1.624   0.291   2.300
 1060SOL    HW2 6975   1.574   0.444   2.276
 1061SOL     OW 6976   1.023   0.766   2.828
 1061SOL    HW1 6977   1.038   0.787   2.924
 1061SOL    HW2 6978   0.993   0.671   2.819
 1062SOL     OW 6979   0.980   1.573   3.562
 1062SOL    HW1 6980   0.960   1.617   3.474
 1062SOL    HW2 6981   1.019   1.482   3.546
 1063SOL     OW 6982   1.859   1.518   3.467
 1063SOL    HW1 6983   1.873   1.545   3.372
 1063SOL    HW2 6984   1.942   1.540   3.520
 1064SOL     OW 6985   0.350   0.898   3.666
 1064SOL    HW1 6986   0.426   0.942   3.714
 1064SOL    HW2 6987   0.385   0.851   3.584
 1065SOL     OW 6988   1.540   0.274   1.987
 1065SOL    HW1 6989   1.479   0.199   2.010
 1065SOL    HW2 6990   1.562   0.326   2.070
 1066SOL     OW 6991   1.303   0.838   1.904
 1066SOL    HW1 6992   1.337   0.745   1.919
 1066SOL    HW2 6993   1.321   0.865   1.809
 1067SOL     OW 6994   1.068   1.333   2.711
 1067SOL    HW1 6995   1.075   1.249   2.656
 1067SOL    HW2 6996   1.130   1.402   2.675
 1068SOL     OW 6997   0.319   0.810   2.811
 1068SOL    HW1 6998   0.412   0.846   2.816
 1068SOL    HW2 6999   0.313   0.725   2.863
 1069SOL     OW 7000   0.339   0.509   2.868
 1069SOL    HW1 7001   0.287   0.426   2.851
 1069SOL    HW2 7002   0.416   0.514   2.804
 1070SOL     OW 7003   1.138   0.380   3.540
 1070SOL    HW1 7004   1.093   0.443   3.604
 1070SOL    HW2 7005   1.231   0.411   3.523
 1071SOL     OW 7006   1.160   0.207   3.339
 1071SOL    HW1 7007   1.160   0.271   3.416
 1071SOL    HW2 7008   1.188   0.255   3.256
 1072SOL     OW 7009   0.008   1.326   2.062
 1072SOL    HW1 7010  -0.085   1.347   2.031
 1072SOL    HW2 7011   0.018   1.227   2.075
 1073SOL     OW 7012   0.088   1.801   2.789
 1073SOL    HW1 7013   0.046   1.715   2.762
 1073SOL    HW2 7014   0.182   1.804   2.755
 1074SOL     OW 7015   0.504   1.568   2.772
 1074SOL    HW1 7016   0.570   1.642   2.781
 1074SOL    HW2 7017   0.548   1.489   2.730
 1075SOL     OW 7018   1.002   0.796   3.100
 1075SOL    HW1 7019   1.043   0.764   3.186
 1075SOL    HW2 7020   0.906   0.769   3.097
 1076SOL     OW 7021   0.040   0.544   2.976
 1076SOL    HW1 7022   0.125   0.511   2.935
 1076SOL    HW2 7023   0.053   0.559   3.074
 1077SOL     OW 7024   1.369   0.950   3.522
 1077SOL    HW1 7025   1.408   1.039   3.542
 1077SOL    HW2 7026   1.379   0.930   3.425
 1078SOL     OW 7027   0.815   0.572   2.187
 1078SOL    HW1 7028   0.822   0.483   2.141
 1078SOL    HW2 7029   0.721   0.606   2.179
 1079SOL     OW 7030   1.657   0.604   3.068
 1079SOL    HW1 7031   1.619   0.535   3.130
 1079SOL    HW2 7032   1.739   0.568   3.024
 1080SOL     OW 7033   0.671   0.464   3.131
 1080SOL    HW1 7034   0.637   0.375   3.101
 1080SOL    HW2 7035   0.697   0.518   3.051
 1081SOL     OW 7036   0.930   1.678   3.327
 1081SOL    HW1 7037   0.906   1.660   3.232
 1081SOL    HW2 7038   0.960   1.772   3.337
 1082SOL     OW 7039   0.159   1.137   3.328
 1082SOL    HW1 7040   0.181   1.076   3.404
 1082SOL    HW2 7041   0.169   1.088   3.242
 1083SOL     OW 7042   1.302   0.855   2.171
 1083SOL    HW1 7043   1.216   0.824   2.213
 1083SOL    HW2 7044   1.298   0.841   2.072
 1084SOL     OW 7045   1.759   1.747   3.016
 1084SOL    HW1 7046   1.820   1.777   2.943
 1084SOL    HW2 7047   1.721   1.658   2.994
 1085SOL     OW 7048   1.252   1.731   2.990
 1085SOL    HW1 7049   1.336   1.736   2.936
 1085SOL    HW2 7050   1.229   1.635   3.008
 1086SOL     OW 7051   0.083   1.258   2.884
 1086SOL    HW1 7052   0.078   1.257   2.984
 1086SOL    HW2 7053   0.000   1.217   2.846
 1087SOL     OW 7054   0.688   1.662   3.578
 1087SOL    HW1 7055   0.632   1.743   3.587
 1087SOL    HW2 7056   0.740   1.666   3.492
 1088SOL     OW 7057   1.726   0.135   2.385
 1088SOL    HW1 7058   1.799   0.118   2.318
 1088SOL    HW2 7059   1.695   0.048   2.423
 1089SOL     OW 7060   1.388   1.573   2.339
 1089SOL    HW1 7061   1.455   1.585   2.265
 1089SOL    HW2 7062   1.348   1.662   2.362
 1090SOL     OW 7063   0.130   1.794   3.713
 1090SOL    HW1 7064   0.089   1.720   3.766
 1090SOL    HW2 7065   0.194   1.845   3.771
 1091SOL     OW 7066   1.280   0.927   2.534
 1091SOL    HW1 7067   1.340   0.846   2.536
 1091SOL    HW2 7068   1.320   0.996   2.474
 1092SOL     OW 7069   0.830   1.273   3.284
 1092SOL    HW1 7070   0.825   1.306   3.379
 1092SOL    HW2 7071   0.744   1.292   3.238
 1093SOL     OW 7072   0.672   1.616   2.016
 1093SOL    HW1 7073   0.681   1.626   1.917
 1093SOL    HW2 7074   0.632   1.527   2.037
 1094SOL     OW 7075   1.650   1.720   3.256
 1094SOL    HW1 7076   1.703   1.730   3.172
 1094SOL    HW2 7077   1.623   1.810   3.290
 1095SOL     OW 7078   1.841   0.175   2.825
 1095SOL    HW1 7079   1.880   0.090   2.789
 1095SOL    HW2 7080   1.743   0.177   2.806
 1096SOL     OW 7081   0.263   0.326   2.582
 1096SOL    HW1 7082   0.184   0.377   2.548
 1096SOL    HW2 7083   0.254   0.311   2.680
 1097SOL     OW 7084   1.194   1.612   1.893
 1097SOL    HW1 7085   1.200   1.519   1.930
 1097SOL    HW2 7086   1.135   1.612   1.813
 1098SOL     OW 7087   0.822   1.002   3.234
 1098SOL    HW1 7088   0.862   1.001   3.142
 1098SOL    HW2 7089   0.832   1.094   3.274
 1099SOL     OW 7090   0.916   0.910   2.153
 1099SOL    HW1 7091   0.979   0.948   2.085
 1099SOL    HW2 7092   0.956   0.827   2.192
 1100SOL     OW 7093   1.504   1.607   1.906
 1100SOL    HW1 7094   1.412   1.644   1.913
 1100SOL    HW2 7095   1.542   1.627   1.816
 1101SOL     OW 7096   0.372   1.288   3.352
 1101SOL    HW1 7097   0.359   1.381   3.318
 1101SOL    HW2 7098   0.288   1.236   3.339
 1102SOL     OW 7099   1.614   1.292   3.151
 1102SOL    HW1 7100   1.674   1.295   3.231
 1102SOL    HW2 7101   1.539   1.356   3.164
 1103SOL     OW 7102   1.039   1.098   2.558
 1103SOL    HW1 7103   0.969   1.051   2.612
 1103SOL    HW2 7104   1.098   1.030   2.515
 1104SOL     OW 7105   1.014   0.236   2.833
 1104SOL    HW1 7106   1.006   0.200   2.740
 1104SOL    HW2 7107   1.012   0.160   2.898
 1105SOL     OW 7108   0.590   1.487   2.353
 1105SOL    HW1 7109   0.632   1.429   2.283
 1105SOL    HW2 7110   0.546   1.566   2.309
 1106SOL     OW 7111   1.709   0.385   3.243
 1106SOL    HW1 7112   1.782   0.454   3.247
 1106SOL    HW2 7113   1.737   0.310   3.184
 1107SOL     OW 7114   0.255   1.348   2.152
 1107SOL    HW1 7115   0.159   1.349   2.125
 1107SOL    HW2 7116   0.267   1.401   2.236
 1108SOL     OW 7117   0.105   1.013   3.588
 1108SOL    HW1 7118   0.028   0.980   3.642
 1108SOL    HW2 7119   0.190   0.983   3.630
 1109SOL     OW 7120   1.183   1.335   1.981
 1109SOL    HW1 7121   1.084   1.324   1.983
 1109SOL    HW2 7122   1.217   1.350   2.074
 1110SOL     OW 7123   0.613   0.842   3.293
 1110SOL    HW1 7124   0.669   0.923   3.276
 1110SOL    HW2 7125   0.672   0.762   3.296
 1111SOL     OW 7126   1.493   1.767   2.821
 1111SOL    HW1 7127   1.526   1.831   2.752
 1111SOL    HW2 7128   1.559   1.761   2.896
 1112SOL     OW 7129   0.716   0.565   3.570
 1112SOL    HW1 7130   0.735   0.630   3.644
 1112SOL    HW2 7131   0.776   0.485   3.579
 1113SOL     OW 7132   1.450   1.220   3.495
 1113SOL    HW1 7133   1.441   1.210   3.594
 1113SOL    HW2 7134   1.546   1.213   3.469
 1114SOL     OW 7135   0.390   1.741   3.422
 1114SOL    HW1 7136   0.299   1.782   3.420
 1114SOL    HW2 7137   0.383   1.647   3.454
 1115SOL     OW 7138   1.225   0.325   2.311
 1115SOL    HW1 7139   1.290   0.251   2.300
 1115SOL    HW2 7140   1.245   0.375   2.395
 1116SOL     OW 7141   0.594   0.745   2.514
 1116SOL    HW1 7142   0.644   0.830   2.495
 1116SOL    HW2 7143   0.506   0.747   2.466
 1117SOL     OW 7144   1.777   0.342   3.504
 1117SOL    HW1 7145   1.760   0.373   3.410
 1117SOL    HW2 7146   1.693   0.305   3.542
 1118SOL     OW 7147   1.730   0.934   3.379
 1118SOL    HW1 7148   1.768   1.025   3.394
 1118SOL    HW2 7149   1.722   0.917   3.280
 1119SOL     OW 7150   0.859   1.374   1.878
 1119SOL    HW1 7151   0.813   1.389   1.966
 1119SOL    HW2 7152   0.903   1.459   1.848
 1120SOL     OW 7153   0.661   1.790   2.815
 1120SOL    HW1 7154   0.615   1.878   2.802
 1120SOL    HW2 7155   0.760   1.802   2.808
 1121SOL     OW 7156   0.859   0.956   2.723
 1121SOL    HW1 7157   0.913   0.887   2.771
 1121SOL    HW2 7158   0.827   1.025   2.789
 1122SOL     OW 7159   1.083   0.984   1.949
 1122SOL    HW1 7160   1.060   1.037   1.867
 1122SOL    HW2 7161   1.164   0.928   1.930
 1123SOL     OW 7162   1.861   1.569   2.713
 1123SOL    HW1 7163   1.790   1.557   2.643
 1123SOL    HW2 7164   1.862   1.490   2.773
 1124SOL     OW 7165   0.079   1.240   2.515
 1124SOL    HW1 7166   0.078   1.193   2.603
 1124SOL    HW2 7167   0.161   1.212   2.464
 1125SOL     OW 7168   0.672   1.391   3.486
 1125SOL    HW1 7169   0.594   1.341   3.524
 1125SOL    HW2 7170   0.669   1.486   3.517
 1126SOL     OW 7171   1.824   0.192   3.089
 1126SOL    HW1 7172   1.820   0.102   3.133
 1126SOL    HW2 7173   1.827   0.181   2.990
 1127SOL     OW 7174   0.428   0.424   2.382
 1127SOL    HW1 7175   0.458   0.352   2.320
 1127SOL    HW2 7176   0.389   0.384   2.465
 1128SOL     OW 7177   1.705   1.487   2.966
 1128SOL    HW1 7178   1.612   1.462   2.939
 1128SOL    HW2 7179   1.731   1.437   3.048
 1129SOL     OW 7180   0.812   1.586   2.549
 1129SOL    HW1 7181   0.844   1.596   2.455
 1129SOL    HW2 7182   0.733   1.524   2.551
 1130SOL     OW 7183   1.424   0.214   2.974
 1130SOL    HW1 7184   1.476   0.149   3.029
 1130SOL    HW2 7185   1.375   0.277   3.035
 1131SOL     OW 7186   1.001   0.034   3.016
 1131SOL    HW1 7187   0.938  -0.038   2.985
 1131SOL    HW2 7188   1.094  -0.002   3.016
 1132SOL     OW 7189   0.770   1.330   2.163
 1132SOL    HW1 7190   0.724   1.243   2.180
 1132SOL    HW2 7191   0.861   1.327   2.204
 1133SOL     OW 7192   0.618   1.567   3.146
 1133SOL    HW1 7193   0.613   1.649   3.203
 1133SOL    HW2 7194   0.707   1.564   3.101
 1134SOL     OW 7195   1.352   0.052   2.030
 1134SOL    HW1 7196   1.387   0.011   1.946
 1134SOL    HW2 7197   1.262   0.014   2.050
 1135SOL     OW 7198   1.300   0.453   2.553
 1135SOL    HW1 7199   1.241   0.533   2.557
 1135SOL    HW2 7200   1.315   0.418   2.646
 1136SOL     OW 7201   1.593   0.221   2.744
 1136SOL    HW1 7202   1.509   0.220   2.798
 1136SOL    HW2 7203   1.595   0.304   2.688
 1137SOL     OW 7204   0.039   1.077   2.162
 1137SOL    HW1 7205   0.138   1.066   2.153
 1137SOL    HW2 7206  -0.001   0.991   2.194
 1138SOL     OW 7207   0.875   1.646   2.199
 1138SOL    HW1 7208   0.798   1.611   2.145
 1138SOL    HW2 7209   0.843   1.717   2.261
 1139SOL     OW 7210   0.230   0.628   3.837
 1139SOL    HW1 7211   0.137   0.626   3.874
 1139SOL    HW2 7212   0.231   0.589   3.745
 1140SOL     OW 7213   0.225   0.275   4.720
 1140SOL    HW1 7214   0.260   0.258   4.812
 1140SOL    HW2 7215   0.137   0.230   4.708
 1141SOL     OW 7216   1.555   1.511   4.427
 1141SOL    HW1 7217   1.498   1.495   4.508
 1141SOL    HW2 7218   1.496   1.521   4.347
 1142SOL     OW 7219   1.135   0.703   4.441
 1142SOL    HW1 7220   1.192   0.781   4.416
 1142SOL    HW2 7221   1.075   0.729   4.517
 1143SOL     OW 7222   1.755   0.607   3.955
 1143SOL    HW1 7223   1.743   0.594   3.856
 1143SOL    HW2 7224   1.725   0.526   4.004
 1144SOL     OW 7225   0.768   1.144   4.747
 1144SOL    HW1 7226   0.690   1.161   4.807
 1144SOL    HW2 7227   0.802   1.231   4.711
 1145SOL     OW 7228   0.850   0.798   5.547
 1145SOL    HW1 7229   0.846   0.874   5.612
 1145SOL    HW2 7230   0.872   0.834   5.456
 1146SOL     OW 7231   0.685   1.012   4.389
 1146SOL    HW1 7232   0.754   0.996   4.459
 1146SOL    HW2 7233   0.612   1.069   4.427
 1147SOL     OW 7234   0.686   1.161   5.527
 1147SOL    HW1 7235   0.746   1.240   5.541
 1147SOL    HW2 7236   0.600   1.192   5.486
 1148SOL     OW 7237   1.460   1.505   5.063
 1148SOL    HW1 7238   1.484   1.599   5.089
 1148SOL    HW2 7239   1.444   1.451   5.145
 1149SOL     OW 7240   1.603   0.447   4.461
 1149SOL    HW1 7241   1.529   0.493   4.411
 1149SOL    HW2 7242   1.654   0.515   4.514
 1150SOL     OW 7243   1.127   1.341   5.414
 1150SOL    HW1 7244   1.174   1.341   5.502
 1150SOL    HW2 7245   1.079   1.254   5.403
 1151SOL     OW 7246   0.240   1.091   4.610
 1151SOL    HW1 7247   0.254   1.007   4.662
 1151SOL    HW2 7248   0.185   1.155   4.665
 1152SOL     OW 7249   0.620   1.786   5.163
 1152SOL    HW1 7250   0.528   1.769   5.198
 1152SOL    HW2 7251   0.648   1.878   5.189
 1153SOL     OW 7252   0.606   0.964   3.847
 1153SOL    HW1 7253   0.613   1.048   3.793
 1153SOL    HW2 7254   0.652   0.977   3.935
 1154SOL     OW 7255   1.594   0.114   5.204
 1154SOL    HW1 7256   1.576   0.181   5.132
 1154SOL    HW2 7257   1.591   0.160   5.293
 1155SOL     OW 7258   0.122   0.643   4.287
 1155SOL    HW1 7259   0.077   0.555   4.304
 1155SOL    HW2 7260   0.121   0.697   4.371
 1156SOL     OW 7261   1.842   1.767   4.083
 1156SOL    HW1 7262   1.896   1.738   4.163
 1156SOL    HW2 7263   1.872   1.857   4.054
 1157SOL     OW 7264   1.641   1.108   4.156
 1157SOL    HW1 7265   1.727   1.110   4.104
 1157SOL    HW2 7266   1.655   1.155   4.244
 1158SOL     OW 7267   0.113   0.737   5.321
 1158SOL    HW1 7268   0.201   0.724   5.366
 1158SOL    HW2 7269   0.100   0.834   5.299
 1159SOL     OW 7270   0.613   1.365   4.450
 1159SOL    HW1 7271   0.564   1.278   4.459
 1159SOL    HW2 7272   0.590   1.408   4.363
 1160SOL     OW 7273   1.293   1.228   5.147
 1160SOL    HW1 7274   1.330   1.155   5.089
 1160SOL    HW2 7275   1.345   1.233   5.232
 1161SOL     OW 7276   0.809   0.004   4.226
 1161SOL    HW1 7277   0.849   0.095   4.217
 1161SOL    HW2 7278   0.709   0.012   4.232
 1162SOL     OW 7279   0.197   0.976   4.988
 1162SOL    HW1 7280   0.286   0.931   4.974
 1162SOL    HW2 7281   0.124   0.911   4.969
 1163SOL     OW 7282   1.525   0.999   3.914
 1163SOL    HW1 7283   1.462   0.923   3.927
 1163SOL    HW2 7284   1.573   1.017   4.000
 1164SOL     OW 7285   1.187   1.792   5.340
 1164SOL    HW1 7286   1.211   1.852   5.264
 1164SOL    HW2 7287   1.194   1.697   5.310
 1165SOL     OW 7288   1.466   1.417   4.677
 1165SOL    HW1 7289   1.407   1.423   4.757
 1165SOL    HW2 7290   1.451   1.329   4.631
 1166SOL     OW 7291   1.667   1.714   4.296
 1166SOL    HW1 7292   1.626   1.691   4.208
 1166SOL    HW2 7293   1.649   1.640   4.361
 1167SOL     OW 7294   0.598   0.729   3.994
 1167SOL    HW1 7295   0.622   0.798   3.926
 1167SOL    HW2 7296   0.520   0.762   4.048
 1168SOL     OW 7297   1.281   0.345   4.668
 1168SOL    HW1 7298   1.195   0.295   4.655
 1168SOL    HW2 7299   1.343   0.291   4.724
 1169SOL     OW 7300   1.576   1.662   4.031
 1169SOL    HW1 7301   1.665   1.708   4.034
 1169SOL    HW2 7302   1.555   1.638   3.936
 1170SOL     OW 7303   1.394   0.469   5.398
 1170SOL    HW1 7304   1.374   0.512   5.486
 1170SOL    HW2 7305   1.472   0.407   5.407
 1171SOL     OW 7306   0.973   0.890   5.296
 1171SOL    HW1 7307   1.019   0.806   5.267
 1171SOL    HW2 7308   0.917   0.924   5.221
 1172SOL     OW 7309   0.991   0.410   4.966
 1172SOL    HW1 7310   0.914   0.444   5.020
 1172SOL    HW2 7311   0.957   0.359   4.887
 1173SOL     OW 7312   1.041   0.701   4.153
 1173SOL    HW1 7313   1.067   0.697   4.249
 1173SOL    HW2 7314   0.956   0.650   4.139
 1174SOL     OW 7315   0.076   0.811   4.513
 1174SOL    HW1 7316   0.175   0.799   4.522
 1174SOL    HW2 7317   0.052   0.906   4.534
 1175SOL     OW 7318   0.130   1.821   5.295
 1175SOL    HW1 7319   0.120   1.806   5.394
 1175SOL    HW2 7320   0.044   1.857   5.259
 1176SOL     OW 7321   0.865   0.348   3.919
 1176SOL    HW1 7322   0.924   0.411   3.870
 1176SOL    HW2 7323   0.884   0.254   3.890
 1177SOL     OW 7324   1.719   0.585   5.555
 1177SOL    HW1 7325   1.693   0.674   5.519
 1177SOL    HW2 7326   1.717   0.517   5.482
 1178SOL     OW 7327   1.362   1.144   4.269
 1178SOL    HW1 7328   1.445   1.115   4.221
 1178SOL    HW2 7329   1.313   1.211   4.213
 1179SOL     OW 7330   1.008   1.456   4.201
 1179SOL    HW1 7331   0.962   1.528   4.149
 1179SOL    HW2 7332   1.004   1.476   4.299
 1180SOL     OW 7333   1.795   1.066   4.597
 1180SOL    HW1 7334   1.733   1.051   4.521
 1180SOL    HW2 7335   1.743   1.077   4.682
 1181SOL     OW 7336   1.227   1.550   5.230
 1181SOL    HW1 7337   1.233   1.473   5.294
 1181SOL    HW2 7338   1.175   1.524   5.150
 1182SOL     OW 7339   0.321   0.943   3.966
 1182SOL    HW1 7340   0.403   0.982   3.924
 1182SOL    HW2 7341   0.294   0.861   3.917
 1183SOL     OW 7342   1.458   0.735   4.452
 1183SOL    HW1 7343   1.453   0.670   4.527
 1183SOL    HW2 7344   1.538   0.794   4.465
 1184SOL     OW 7345   0.461   1.266   5.451
 1184SOL    HW1 7346   0.411   1.267   5.365
 1184SOL    HW2 7347   0.398   1.248   5.527
 1185SOL     OW 7348   1.111   1.776   3.961
 1185SOL    HW1 7349   1.051   1.714   4.011
 1185SOL    HW2 7350   1.142   1.732   3.876
 1186SOL     OW 7351   0.202   0.285   5.222
 1186SOL    HW1 7352   0.122   0.345   5.209
 1186SOL    HW2 7353   0.192   0.236   5.308
 1187SOL     OW 7354   1.632   1.377   3.805
 1187SOL    HW1 7355   1.600   1.471   3.795
 1187SOL    HW2 7356   1.556   1.314   3.793
 1188SOL     OW 7357   0.464   1.743   4.047
 1188SOL    HW1 7358   0.497   1.782   4.133
 1188SOL    HW2 7359   0.540   1.736   3.982
 1189SOL     OW 7360   1.400   0.107   4.150
 1189SOL    HW1 7361   1.376   0.070   4.060
 1189SOL    HW2 7362   1.499   0.123   4.154
 1190SOL     OW 7363   0.249   1.785   4.965
 1190SOL    HW1 7364   0.306   1.720   5.015
 1190SOL    HW2 7365   0.233   1.752   4.872
 1191SOL     OW 7366   0.940   1.698   4.628
 1191SOL    HW1 7367   1.020   1.641   4.649
 1191SOL    HW2 7368   0.891   1.658   4.551
 1192SOL     OW 7369   0.382   0.700   4.204
 1192SOL    HW1 7370   0.427   0.610   4.201
 1192SOL    HW2 7371   0.288   0.689   4.237
 1193SOL     OW 7372   1.547   0.222   5.453
 1193SOL    HW1 7373   1.542   0.259   5.545
 1193SOL    HW2 7374   1.475   0.153   5.441
 1194SOL     OW 7375   0.614   0.122   3.841
 1194SOL    HW1 7376   0.712   0.100   3.848
 1194SOL    HW2 7377   0.583   0.105   3.748
 1195SOL     OW 7378   1.351   0.590   5.157
 1195SOL    HW1 7379   1.379   0.547   5.242
 1195SOL    HW2 7380   1.376   0.686   5.158
 1196SOL     OW 7381   0.922   0.503   4.623
 1196SOL    HW1 7382   0.897   0.494   4.527
 1196SOL    HW2 7383   0.970   0.421   4.654
 1197SOL     OW 7384   0.539   0.064   4.236
 1197SOL    HW1 7385   0.458   0.065   4.294
 1197SOL    HW2 7386   0.542   0.147   4.181
 1198SOL     OW 7387   1.434   1.188   3.765
 1198SOL    HW1 7388   1.466   1.112   3.822
 1198SOL    HW2 7389   1.342   1.215   3.795
 1199SOL     OW 7390   0.935   0.236   4.204
 1199SOL    HW1 7391   0.887   0.277   4.126
 1199SOL    HW2 7392   1.034   0.234   4.185
 1200SOL     OW 7393   1.076   0.683   5.188
 1200SOL    HW1 7394   0.996   0.622   5.191
 1200SOL    HW2 7395   1.157   0.630   5.164
 1201SOL     OW 7396   1.227   1.570   4.517
 1201SOL    HW1 7397   1.248   1.644   4.452
 1201SOL    HW2 7398   1.295   1.570   4.590
 1202SOL     OW 7399   0.459   1.152   4.465
 1202SOL    HW1 7400   0.388   1.125   4.530
 1202SOL    HW2 7401   0.433   1.124   4.372
 1203SOL     OW 7402   1.271   1.797   4.315
 1203SOL    HW1 7403   1.315   1.861   4.251
 1203SOL    HW2 7404   1.221   1.849   4.385
 1204SOL     OW 7405   1.032   0.549   3.740
 1204SOL    HW1 7406   0.991   0.631   3.701
 1204SOL    HW2 7407   1.096   0.575   3.813
 1205SOL     OW 7408   0.078   0.556   5.110
 1205SOL    HW1 7409   0.170   0.555   5.069
 1205SOL    HW2 7410   0.072   0.630   5.177
 1206SOL     OW 7411   0.866   0.454   4.366
 1206SOL    HW1 7412   0.834   0.526   4.304
 1206SOL    HW2 7413   0.890   0.373   4.313
 1207SOL     OW 7414   1.017   0.039   4.477
 1207SOL    HW1 7415   0.945   0.044   4.408
 1207SOL    HW2 7416   0.993  -0.030   4.546
 1208SOL     OW 7417   1.429   1.173   4.591
 1208SOL    HW1 7418   1.374   1.089   4.584
 1208SOL    HW2 7419   1.455   1.202   4.499
 1209SOL     OW 7420   1.466   0.590   4.716
 1209SOL    HW1 7421   1.436   0.495   4.723
 1209SOL    HW2 7422   1.539   0.606   4.782
 1210SOL     OW 7423   1.857   0.833   4.101
 1210SOL    HW1 7424   1.899   0.769   4.165
 1210SOL    HW2 7425   1.819   0.782   4.023
 1211SOL     OW 7426   1.664   1.280   4.381
 1211SOL    HW1 7427   1.763   1.288   4.395
 1211SOL    HW2 7428   1.619   1.364   4.412
 1212SOL     OW 7429   1.390   0.575   3.802
 1212SOL    HW1 7430   1.336   0.554   3.883
 1212SOL    HW2 7431   1.481   0.534   3.811
 1213SOL     OW 7432   0.527   0.256   4.052
 1213SOL    HW1 7433   0.554   0.197   3.977
 1213SOL    HW2 7434   0.527   0.351   4.021
 1214SOL     OW 7435   1.754   1.223   5.312
 1214SOL    HW1 7436   1.845   1.184   5.299
 1214SOL    HW2 7437   1.762   1.319   5.336
 1215SOL     OW 7438   1.064   1.347   5.064
 1215SOL    HW1 7439   0.984   1.324   5.119
 1215SOL    HW2 7440   1.147   1.321   5.113
 1216SOL     OW 7441   1.592   1.629   5.349
 1216SOL    HW1 7442   1.619   1.663   5.259
 1216SOL    HW2 7443   1.671   1.591   5.395
 1217SOL     OW 7444   1.111   1.195   4.824
 1217SOL    HW1 7445   1.071   1.239   4.905
 1217SOL    HW2 7446   1.070   1.232   4.741
 1218SOL     OW 7447   1.638   1.099   4.803
 1218SOL    HW1 7448   1.643   1.180   4.862
 1218SOL    HW2 7449   1.552   1.101   4.752
 1219SOL     OW 7450   0.915   0.089   5.126
 1219SOL    HW1 7451   0.940   0.069   5.031
 1219SOL    HW2 7452   0.987   0.145   5.168
 1220SOL     OW 7453   0.980   1.116   5.443
 1220SOL    HW1 7454   0.881   1.122   5.453
 1220SOL    HW2 7455   1.003   1.036   5.387
 1221SOL     OW 7456   0.705   1.050   4.092
 1221SOL    HW1 7457   0.691   1.057   4.191
 1221SOL    HW2 7458   0.789   0.999   4.074
 1222SOL     OW 7459   0.410   0.813   4.975
 1222SOL    HW1 7460   0.496   0.825   5.025
 1222SOL    HW2 7461   0.368   0.726   5.002
 1223SOL     OW 7462   1.274   0.386   4.986
 1223SOL    HW1 7463   1.295   0.460   5.050
 1223SOL    HW2 7464   1.185   0.403   4.943
 1224SOL     OW 7465   0.064   1.564   5.055
 1224SOL    HW1 7466   0.018   1.646   5.021
 1224SOL    HW2 7467   0.162   1.583   5.064
 1225SOL     OW 7468   0.367   1.100   4.225
 1225SOL    HW1 7469   0.360   1.183   4.169
 1225SOL    HW2 7470   0.371   1.020   4.165
 1226SOL     OW 7471   0.566   0.537   4.589
 1226SOL    HW1 7472   0.578   0.603   4.515
 1226SOL    HW2 7473   0.612   0.571   4.672
 1227SOL     OW 7474   1.252   1.348   4.112
 1227SOL    HW1 7475   1.302   1.425   4.152
 1227SOL    HW2 7476   1.157   1.350   4.144
 1228SOL     OW 7477   1.272   1.445   4.866
 1228SOL    HW1 7478   1.319   1.458   4.953
 1228SOL    HW2 7479   1.206   1.371   4.875
 1229SOL     OW 7480   1.582   0.639   4.196
 1229SOL    HW1 7481   1.551   0.700   4.269
 1229SOL    HW2 7482   1.632   0.691   4.127
 1230SOL     OW 7483   0.354   1.510   5.053
 1230SOL    HW1 7484   0.333   1.466   4.966
 1230SOL    HW2 7485   0.451   1.536   5.056
 1231SOL     OW 7486   1.587   0.779   5.394
 1231SOL    HW1 7487   1.495   0.817   5.389
 1231SOL    HW2 7488   1.647   0.826   5.329
 1232SOL     OW 7489   1.013   0.105   5.494
 1232SOL    HW1 7490   1.019   0.190   5.442
 1232SOL    HW2 7491   1.045   0.029   5.437
 1233SOL     OW 7492   0.504   0.050   5.464
 1233SOL    HW1 7493   0.462  -0.007   5.394
 1233SOL    HW2 7494   0.438   0.119   5.496
 1234SOL     OW 7495   0.573   0.870   4.753
 1234SOL    HW1 7496   0.617   0.959   4.744
 1234SOL    HW2 7497   0.510   0.870   4.830
 1235SOL     OW 7498   1.360   0.862   4.769
 1235SOL    HW1 7499   1.285   0.862   4.703
 1235SOL    HW2 7500   1.397   0.770   4.778
 1236SOL     OW 7501   1.209   0.525   3.999
 1236SOL    HW1 7502   1.222   0.441   4.053
 1236SOL    HW2 7503   1.180   0.599   4.059
 1237SOL     OW 7504   0.307   0.213   4.955
 1237SOL    HW1 7505   0.284   0.250   5.045
 1237SOL    HW2 7506   0.277   0.118   4.949
 1238SOL     OW 7507   0.037   1.310   5.006
 1238SOL    HW1 7508   0.090   1.261   5.074
 1238SOL    HW2 7509   0.059   1.408   5.011
 1239SOL     OW 7510   0.732   0.634   4.788
 1239SOL    HW1 7511   0.791   0.608   4.712
 1239SOL    HW2 7512   0.704   0.730   4.777
 1240SOL     OW 7513   1.728   0.935   5.578
 1240SOL    HW1 7514   1.682   0.928   5.489
 1240SOL    HW2 7515   1.666   0.979   5.644
 1241SOL     OW 7516   1.622   0.367   4.098
 1241SOL    HW1 7517   1.624   0.291   4.162
 1241SOL    HW2 7518   1.574   0.444   4.138
 1242SOL     OW 7519   1.023   0.766   4.690
 1242SOL    HW1 7520   1.038   0.787   4.786
 1242SOL    HW2 7521   0.993   0.671   4.681
 1243SOL     OW 7522   0.980   1.573   5.424
 1243SOL    HW1 7523   0.960   1.617   5.336
 1243SOL    HW2 7524   1.019   1.482   5.408
 1244SOL     OW 7525   1.859   1.518   5.329
 1244SOL    HW1 7526   1.873   1.545   5.234
 1244SOL    HW2 7527   1.942   1.540   5.382
 1245SOL     OW 7528   0.350   0.898   5.528
 1245SOL    HW1 7529   0.426   0.942   5.576
 1245SOL    HW2 7530   0.385   0.851   5.446
 1246SOL     OW 7531   1.540   0.274   3.849
 1246SOL    HW1 7532   1.479   0.199   3.872
 1246SOL    HW2 7533   1.562   0.326   3.932
 1247SOL     OW 7534   1.303   0.838   3.766
 1247SOL    HW1 7535   1.337   0.745   3.781
 1247SOL    HW2 7536   1.321   0.865   3.671
 1248SOL     OW 7537   1.068   1.333   4.573
 1248SOL    HW1 7538   1.075   1.249   4.518
 1248SOL    HW2 7539   1.130   1.402   4.537
 1249SOL     OW 7540   0.319   0.810   4.673
 1249SOL    HW1 7541   0.412   0.846   4.678
 1249SOL    HW2 7542   0.313   0.725   4.725
 1250SOL     OW 7543   0.339   0.509   4.730
 1250SOL    HW1 7544   0.287   0.426   4.713
 1250SOL    HW2 7545   0.416   0.514   4.666
 1251SOL     OW 7546   1.138   0.380   5.402
 1251SOL    HW1 7547   1.093   0.443   5.466
 1251SOL    HW2 7548   1.231   0.411   5.385
 1252SOL     OW 7549   1.160   0.207   5.201
 1252SOL    HW1 7550   1.160   0.271   5.278
 1252SOL    HW2 7551   1.188   0.255   5.118
 1253SOL     OW 7552   0.008   1.326   3.924
 1253SOL    HW1 7553  -0.085   1.347   3.893
 1253SOL    HW2 7554   0.018   1.227   3.937
 1254SOL     OW 7555   1.002   0.796   4.962
 1254SOL    HW1 7556   1.043   0.764   5.048
 1254SOL    HW2 7557   0.906   0.769   4.959
 1255SOL     OW 7558   0.040   0.544   4.838
 1255SOL    HW1 7559   0.125   0.511   4.797
 1255SOL    HW2 7560   0.053   0.559   4.936
 1256SOL     OW 7561   1.369   0.950   5.384
 1256SOL    HW1 7562   1.408   1.039   5.404
 1256SOL    HW2 7563   1.379   0.930   5.287
 1257SOL     OW 7564   0.815   0.572   4.049
 1257SOL    HW1 7565   0.822   0.483   4.003
 1257SOL    HW2 7566   0.721   0.606   4.041
 1258SOL     OW 7567   1.657   0.604   4.930
 1258SOL    HW1 7568   1.619   0.535   4.992
 1258SOL    HW2 7569   1.739   0.568   4.886
 1259SOL     OW 7570   0.252   1.564   5.468
 1259SOL    HW1 7571   0.222   1.621   5.544
 1259SOL    HW2 7572   0.245   1.467   5.494
 1260SOL     OW 7573   0.671   0.464   4.993
 1260SOL    HW1 7574   0.637   0.375   4.963
 1260SOL    HW2 7575   0.697   0.518   4.913
 1261SOL     OW 7576   0.930   1.678   5.189
 1261SOL    HW1 7577   0.906   1.660   5.094
 1261SOL    HW2 7578   0.960   1.772   5.199
 1262SOL     OW 7579   0.473   0.500   3.915
 1262SOL    HW1 7580   0.534   0.580   3.919
 1262SOL    HW2 7581   0.378   0.531   3.922
 1263SOL     OW 7582   0.159   1.137   5.190
 1263SOL    HW1 7583   0.181   1.076   5.266
 1263SOL    HW2 7584   0.169   1.088   5.104
 1264SOL     OW 7585   1.347   1.059   4.958
 1264SOL    HW1 7586   1.371   0.996   4.884
 1264SOL    HW2 7587   1.257   1.099   4.940
 1265SOL     OW 7588   1.302   0.855   4.033
 1265SOL    HW1 7589   1.216   0.824   4.075
 1265SOL    HW2 7590   1.298   0.841   3.934
 1266SOL     OW 7591   1.759   1.747   4.878
 1266SOL    HW1 7592   1.820   1.777   4.805
 1266SOL    HW2 7593   1.721   1.658   4.856
 1267SOL     OW 7594   1.252   1.731   4.852
 1267SOL    HW1 7595   1.336   1.736   4.798
 1267SOL    HW2 7596   1.229   1.635   4.870
 1268SOL     OW 7597   0.083   1.258   4.746
 1268SOL    HW1 7598   0.078   1.257   4.846
 1268SOL    HW2 7599   0.000   1.217   4.708
 1269SOL     OW 7600   0.688   1.662   5.440
 1269SOL    HW1 7601   0.632   1.743   5.449
 1269SOL    HW2 7602   0.740   1.666   5.354
 1270SOL     OW 7603   1.726   0.135   4.247
 1270SOL    HW1 7604   1.799   0.118   4.180
 1270SOL    HW2 7605   1.695   0.048   4.285
 1271SOL     OW 7606   1.388   1.573   4.201
 1271SOL    HW1 7607   1.455   1.585   4.127
 1271SOL    HW2 7608   1.348   1.662   4.224
 1272SOL     OW 7609   0.130   1.794   5.575
 1272SOL    HW1 7610   0.089   1.720   5.628
 1272SOL    HW2 7611   0.194   1.845   5.633
 1273SOL     OW 7612   1.280   0.927   4.396
 1273SOL    HW1 7613   1.340   0.846   4.398
 1273SOL    HW2 7614   1.320   0.996   4.336
 1274SOL     OW 7615   0.830   1.273   5.146
 1274SOL    HW1 7616   0.825   1.306   5.241
 1274SOL    HW2 7617   0.744   1.292   5.100
 1275SOL     OW 7618   0.672   1.616   3.878
 1275SOL    HW1 7619   0.681   1.626   3.779
 1275SOL    HW2 7620   0.632   1.527   3.899
 1276SOL     OW 7621   1.650   1.720   5.118
 1276SOL    HW1 7622   1.703   1.730   5.034
 1276SOL    HW2 7623   1.623   1.810   5.152
 1277SOL     OW 7624   1.194   1.612   3.755
 1277SOL    HW1 7625   1.200   1.519   3.792
 1277SOL    HW2 7626   1.135   1.612   3.675
 1278SOL     OW 7627   0.822   1.002   5.096
 1278SOL    HW1 7628   0.862   1.001   5.004
 1278SOL    HW2 7629   0.832   1.094   5.136
 1279SOL     OW 7630   0.916   0.910   4.015
 1279SOL    HW1 7631   0.979   0.948   3.947
 1279SOL    HW2 7632   0.956   0.827   4.054
 1280SOL     OW 7633   1.504   1.607   3.768
 1280SOL    HW1 7634   1.412   1.644   3.775
 1280SOL    HW2 7635   1.542   1.627   3.678
 1281SOL     OW 7636   0.372   1.288   5.214
 1281SOL    HW1 7637   0.359   1.381   5.180
 1281SOL    HW2 7638   0.288   1.236   5.201
 1282SOL     OW 7639   1.614   1.292   5.013
 1282SOL    HW1 7640   1.674   1.295   5.093
 1282SOL    HW2 7641   1.539   1.356   5.026
 1283SOL     OW 7642   1.039   1.098   4.420
 1283SOL    HW1 7643   0.969   1.051   4.474
 1283SOL    HW2 7644   1.098   1.030   4.377
 1284SOL     OW 7645   1.014   0.236   4.695
 1284SOL    HW1 7646   1.006   0.200   4.602
 1284SOL    HW2 7647   1.012   0.160   4.760
 1285SOL     OW 7648   0.590   1.487   4.215
 1285SOL    HW1 7649   0.632   1.429   4.145
 1285SOL    HW2 7650   0.546   1.566   4.171
 1286SOL     OW 7651   1.709   0.385   5.105
 1286SOL    HW1 7652   1.782   0.454   5.109
 1286SOL    HW2 7653   1.737   0.310   5.046
 1287SOL     OW 7654   0.105   1.013   5.450
 1287SOL    HW1 7655   0.028   0.980   5.504
 1287SOL    HW2 7656   0.190   0.983   5.492
 1288SOL     OW 7657   0.672   0.203   5.213
 1288SOL    HW1 7658   0.762   0.187   5.173
 1288SOL    HW2 7659   0.680   0.208   5.312
 1289SOL     OW 7660   0.075   0.345   3.757
 1289SOL    HW1 7661  -0.017   0.317   3.728
 1289SOL    HW2 7662   0.106   0.422   3.701
 1290SOL     OW 7663   1.440   0.856   5.122
 1290SOL    HW1 7664   1.383   0.908   5.059
 1290SOL    HW2 7665   1.536   0.868   5.098
 1291SOL     OW 7666   1.183   1.335   3.843
 1291SOL    HW1 7667   1.084   1.324   3.845
 1291SOL    HW2 7668   1.217   1.350   3.936
 1292SOL     OW 7669   0.613   0.842   5.155
 1292SOL    HW1 7670   0.669   0.923   5.138
 1292SOL    HW2 7671   0.672   0.762   5.158
 1293SOL     OW 7672   1.493   1.767   4.683
 1293SOL    HW1 7673   1.526   1.831   4.614
 1293SOL    HW2 7674   1.559   1.761   4.758
 1294SOL     OW 7675   1.450   1.220   5.357
 1294SOL    HW1 7676   1.441   1.210   5.456
 1294SOL    HW2 7677   1.546   1.213   5.331
 1295SOL     OW 7678   0.390   1.741   5.284
 1295SOL    HW1 7679   0.299   1.782   5.282
 1295SOL    HW2 7680   0.383   1.647   5.316
 1296SOL     OW 7681   1.674   0.883   4.978
 1296SOL    HW1 7682   1.647   0.794   4.941
 1296SOL    HW2 7683   1.675   0.951   4.905
 1297SOL     OW 7684   1.225   0.325   4.173
 1297SOL    HW1 7685   1.290   0.251   4.162
 1297SOL    HW2 7686   1.245   0.375   4.257
 1298SOL     OW 7687   0.594   0.745   4.376
 1298SOL    HW1 7688   0.644   0.830   4.357
 1298SOL    HW2 7689   0.506   0.747   4.328
 1299SOL     OW 7690   1.777   0.342   5.366
 1299SOL    HW1 7691   1.760   0.373   5.272
 1299SOL    HW2 7692   1.693   0.305   5.404
 1300SOL     OW 7693   1.730   0.934   5.241
 1300SOL    HW1 7694   1.768   1.025   5.256
 1300SOL    HW2 7695   1.722   0.917   5.142
 1301SOL     OW 7696   0.859   1.374   3.740
 1301SOL    HW1 7697   0.813   1.389   3.828
 1301SOL    HW2 7698   0.903   1.459   3.710
 1302SOL     OW 7699   0.859   0.956   4.585
 1302SOL    HW1 7700   0.913   0.887   4.633
 1302SOL    HW2 7701   0.827   1.025   4.651
 1303SOL     OW 7702   1.083   0.984   3.811
 1303SOL    HW1 7703   1.060   1.037   3.729
 1303SOL    HW2 7704   1.164   0.928   3.792
 1304SOL     OW 7705   1.861   1.569   4.575
 1304SOL    HW1 7706   1.790   1.557   4.505
 1304SOL    HW2 7707   1.862   1.490   4.635
 1305SOL     OW 7708   0.221   1.314   5.568
 1305SOL    HW1 7709   0.156   1.241   5.547
 1305SOL    HW2 7710   0.225   1.328   5.666
 1306SOL     OW 7711   0.079   1.240   4.377
 1306SOL    HW1 7712   0.078   1.193   4.465
 1306SOL    HW2 7713   0.161   1.212   4.326
 1307SOL     OW 7714   0.672   1.391   5.348
 1307SOL    HW1 7715   0.594   1.341   5.386
 1307SOL    HW2 7716   0.669   1.486   5.379
 1308SOL     OW 7717   1.824   0.192   4.951
 1308SOL    HW1 7718   1.820   0.102   4.995
 1308SOL    HW2 7719   1.827   0.181   4.852
 1309SOL     OW 7720   0.428   0.424   4.244
 1309SOL    HW1 7721   0.458   0.352   4.182
 1309SOL    HW2 7722   0.389   0.384   4.327
 1310SOL     OW 7723   1.705   1.487   4.828
 1310SOL    HW1 7724   1.612   1.462   4.801
 1310SOL    HW2 7725   1.731   1.437   4.910
 1311SOL     OW 7726   0.812   1.586   4.411
 1311SOL    HW1 7727   0.844   1.596   4.317
 1311SOL    HW2 7728   0.733   1.524   4.413
 1312SOL     OW 7729   1.424   0.214   4.836
 1312SOL    HW1 7730   1.476   0.149   4.891
 1312SOL    HW2 7731   1.375   0.277   4.897
 1313SOL     OW 7732   1.001   0.034   4.878
 1313SOL    HW1 7733   0.938  -0.038   4.847
 1313SOL    HW2 7734   1.094  -0.002   4.878
 1314SOL     OW 7735   0.770   1.330   4.025
 1314SOL    HW1 7736   0.724   1.243   4.042
 1314SOL    HW2 7737   0.861   1.327   4.066
 1315SOL     OW 7738   1.352   0.052   3.892
 1315SOL    HW1 7739   1.387   0.011   3.808
 1315SOL    HW2 7740   1.262   0.014   3.912
 1316SOL     OW 7741   1.300   0.453   4.415
 1316SOL    HW1 7742   1.241   0.533   4.419
 1316SOL    HW2 7743   1.315   0.418   4.508
 1317SOL     OW 7744   1.593   0.221   4.606
 1317SOL    HW1 7745   1.509   0.220   4.660
 1317SOL    HW2 7746   1.595   0.304   4.550
 1318SOL     OW 7747   0.039   1.077   4.024
 1318SOL    HW1 7748   0.138   1.066   4.015
 1318SOL    HW2 7749  -0.001   0.991   4.056
 1319SOL     OW 7750   0.875   1.646   4.061
 1319SOL    HW1 7751   0.798   1.611   4.007
 1319SOL    HW2 7752   0.843   1.717   4.123
 1320SOL     OW 7753   0.225   0.275   6.582
 1320SOL    HW1 7754   0.260   0.258   6.674
 1320SOL    HW2 7755   0.137   0.230   6.570
 1321SOL     OW 7756   0.019   0.368   6.233
 1321SOL    HW1 7757  -0.063   0.411   6.272
 1321SOL    HW2 7758  -0.009   0.295   6.170
 1322SOL     OW 7759   0.569   1.275   6.751
 1322SOL    HW1 7760   0.476   1.268   6.714
 1322SOL    HW2 7761   0.580   1.364   6.795
 1323SOL     OW 7762   1.555   1.511   6.289
 1323SOL    HW1 7763   1.498   1.495   6.370
 1323SOL    HW2 7764   1.496   1.521   6.209
 1324SOL     OW 7765   1.135   0.703   6.303
 1324SOL    HW1 7766   1.192   0.781   6.278
 1324SOL    HW2 7767   1.075   0.729   6.379
 1325SOL     OW 7768   1.755   0.607   5.817
 1325SOL    HW1 7769   1.743   0.594   5.718
 1325SOL    HW2 7770   1.725   0.526   5.866
 1326SOL     OW 7771   0.768   1.144   6.609
 1326SOL    HW1 7772   0.690   1.161   6.669
 1326SOL    HW2 7773   0.802   1.231   6.573
 1327SOL     OW 7774   0.850   0.798   7.409
 1327SOL    HW1 7775   0.846   0.874   7.474
 1327SOL    HW2 7776   0.872   0.834   7.318
 1328SOL     OW 7777   0.685   1.012   6.251
 1328SOL    HW1 7778   0.754   0.996   6.321
 1328SOL    HW2 7779   0.612   1.069   6.289
 1329SOL     OW 7780   0.686   1.161   7.389
 1329SOL    HW1 7781   0.746   1.240   7.403
 1329SOL    HW2 7782   0.600   1.192   7.348
 1330SOL     OW 7783   0.335   1.435   6.647
 1330SOL    HW1 7784   0.257   1.404   6.594
 1330SOL    HW2 7785   0.393   1.493   6.590
 1331SOL     OW 7786   0.438   0.392   7.085
 1331SOL    HW1 7787   0.520   0.336   7.094
 1331SOL    HW2 7788   0.357   0.334   7.089
 1332SOL     OW 7789   1.603   0.447   6.323
 1332SOL    HW1 7790   1.529   0.493   6.273
 1332SOL    HW2 7791   1.654   0.515   6.376
 1333SOL     OW 7792   0.231   1.713   6.069
 1333SOL    HW1 7793   0.265   1.790   6.123
 1333SOL    HW2 7794   0.275   1.713   5.979
 1334SOL     OW 7795   1.127   1.341   7.276
 1334SOL    HW1 7796   1.174   1.341   7.364
 1334SOL    HW2 7797   1.079   1.254   7.265
 1335SOL     OW 7798   0.230   1.434   6.124
 1335SOL    HW1 7799   0.204   1.530   6.124
 1335SOL    HW2 7800   0.159   1.380   6.169
 1336SOL     OW 7801   0.240   1.091   6.472
 1336SOL    HW1 7802   0.254   1.007   6.524
 1336SOL    HW2 7803   0.185   1.155   6.527
 1337SOL     OW 7804   0.620   1.786   7.025
 1337SOL    HW1 7805   0.528   1.769   7.060
 1337SOL    HW2 7806   0.648   1.878   7.051
 1338SOL     OW 7807   0.606   0.964   5.709
 1338SOL    HW1 7808   0.613   1.048   5.655
 1338SOL    HW2 7809   0.652   0.977   5.797
 1339SOL     OW 7810   1.842   1.767   5.945
 1339SOL    HW1 7811   1.896   1.738   6.025
 1339SOL    HW2 7812   1.872   1.857   5.916
 1340SOL     OW 7813   0.027   1.596   5.703
 1340SOL    HW1 7814   0.008   1.500   5.724
 1340SOL    HW2 7815  -0.006   1.654   5.778
 1341SOL     OW 7816   1.689   0.922   6.198
 1341SOL    HW1 7817   1.784   0.893   6.206
 1341SOL    HW2 7818   1.681   0.987   6.123
 1342SOL     OW 7819   1.641   1.108   6.018
 1342SOL    HW1 7820   1.727   1.110   5.966
 1342SOL    HW2 7821   1.655   1.155   6.106
 1343SOL     OW 7822   0.113   0.737   7.183
 1343SOL    HW1 7823   0.201   0.724   7.228
 1343SOL    HW2 7824   0.100   0.834   7.161
 1344SOL     OW 7825   1.293   1.228   7.009
 1344SOL    HW1 7826   1.330   1.155   6.951
 1344SOL    HW2 7827   1.345   1.233   7.094
 1345SOL     OW 7828   0.809   0.004   6.088
 1345SOL    HW1 7829   0.849   0.095   6.079
 1345SOL    HW2 7830   0.709   0.012   6.094
 1346SOL     OW 7831   0.197   0.976   6.850
 1346SOL    HW1 7832   0.286   0.931   6.836
 1346SOL    HW2 7833   0.124   0.911   6.831
 1347SOL     OW 7834   1.525   0.999   5.776
 1347SOL    HW1 7835   1.462   0.923   5.789
 1347SOL    HW2 7836   1.573   1.017   5.862
 1348SOL     OW 7837   0.317   0.251   7.387
 1348SOL    HW1 7838   0.388   0.322   7.393
 1348SOL    HW2 7839   0.229   0.290   7.415
 1349SOL     OW 7840   1.466   1.417   6.539
 1349SOL    HW1 7841   1.407   1.423   6.619
 1349SOL    HW2 7842   1.451   1.329   6.493
 1350SOL     OW 7843   1.667   1.714   6.158
 1350SOL    HW1 7844   1.626   1.691   6.070
 1350SOL    HW2 7845   1.649   1.640   6.223
 1351SOL     OW 7846   0.598   0.729   5.856
 1351SOL    HW1 7847   0.622   0.798   5.788
 1351SOL    HW2 7848   0.520   0.762   5.910
 1352SOL     OW 7849   1.281   0.345   6.530
 1352SOL    HW1 7850   1.195   0.295   6.517
 1352SOL    HW2 7851   1.343   0.291   6.586
 1353SOL     OW 7852   1.576   1.662   5.893
 1353SOL    HW1 7853   1.665   1.708   5.896
 1353SOL    HW2 7854   1.555   1.638   5.798
 1354SOL     OW 7855   0.807   0.605   7.051
 1354SOL    HW1 7856   0.760   0.602   7.140
 1354SOL    HW2 7857   0.756   0.550   6.985
 1355SOL     OW 7858   1.394   0.469   7.260
 1355SOL    HW1 7859   1.374   0.512   7.348
 1355SOL    HW2 7860   1.472   0.407   7.269
 1356SOL     OW 7861   0.973   0.890   7.158
 1356SOL    HW1 7862   1.019   0.806   7.129
 1356SOL    HW2 7863   0.917   0.924   7.083
 1357SOL     OW 7864   0.991   0.410   6.828
 1357SOL    HW1 7865   0.914   0.444   6.882
 1357SOL    HW2 7866   0.957   0.359   6.749
 1358SOL     OW 7867   1.041   0.701   6.015
 1358SOL    HW1 7868   1.067   0.697   6.111
 1358SOL    HW2 7869   0.956   0.650   6.001
 1359SOL     OW 7870   0.130   1.821   7.157
 1359SOL    HW1 7871   0.120   1.806   7.256
 1359SOL    HW2 7872   0.044   1.857   7.121
 1360SOL     OW 7873   0.865   0.348   5.781
 1360SOL    HW1 7874   0.924   0.411   5.732
 1360SOL    HW2 7875   0.884   0.254   5.752
 1361SOL     OW 7876   1.362   1.144   6.131
 1361SOL    HW1 7877   1.445   1.115   6.083
 1361SOL    HW2 7878   1.313   1.211   6.075
 1362SOL     OW 7879   0.550   0.196   6.471
 1362SOL    HW1 7880   0.545   0.191   6.571
 1362SOL    HW2 7881   0.552   0.292   6.442
 1363SOL     OW 7882   1.008   1.456   6.063
 1363SOL    HW1 7883   0.962   1.528   6.011
 1363SOL    HW2 7884   1.004   1.476   6.161
 1364SOL     OW 7885   0.351   1.801   6.439
 1364SOL    HW1 7886   0.401   1.715   6.445
 1364SOL    HW2 7887   0.416   1.878   6.436
 1365SOL     OW 7888   1.795   1.066   6.459
 1365SOL    HW1 7889   1.733   1.051   6.383
 1365SOL    HW2 7890   1.743   1.077   6.544
 1366SOL     OW 7891   0.321   0.943   5.828
 1366SOL    HW1 7892   0.403   0.982   5.786
 1366SOL    HW2 7893   0.294   0.861   5.779
 1367SOL     OW 7894   1.458   0.735   6.314
 1367SOL    HW1 7895   1.453   0.670   6.389
 1367SOL    HW2 7896   1.538   0.794   6.327
 1368SOL     OW 7897   0.461   1.266   7.313
 1368SOL    HW1 7898   0.411   1.267   7.227
 1368SOL    HW2 7899   0.398   1.248   7.389
 1369SOL     OW 7900   1.111   1.776   5.823
 1369SOL    HW1 7901   1.051   1.714   5.873
 1369SOL    HW2 7902   1.142   1.732   5.738
 1370SOL     OW 7903   0.202   0.285   7.084
 1370SOL    HW1 7904   0.122   0.345   7.071
 1370SOL    HW2 7905   0.192   0.236   7.170
 1371SOL     OW 7906   1.632   1.377   5.667
 1371SOL    HW1 7907   1.600   1.471   5.657
 1371SOL    HW2 7908   1.556   1.314   5.655
 1372SOL     OW 7909   0.464   1.743   5.909
 1372SOL    HW1 7910   0.497   1.782   5.995
 1372SOL    HW2 7911   0.540   1.736   5.844
 1373SOL     OW 7912   1.400   0.107   6.012
 1373SOL    HW1 7913   1.376   0.070   5.922
 1373SOL    HW2 7914   1.499   0.123   6.016
 1374SOL     OW 7915   0.249   1.785   6.827
 1374SOL    HW1 7916   0.306   1.720   6.877
 1374SOL    HW2 7917   0.233   1.752   6.734
 1375SOL     OW 7918   0.940   1.698   6.490
 1375SOL    HW1 7919   1.020   1.641   6.511
 1375SOL    HW2 7920   0.891   1.658   6.413
 1376SOL     OW 7921   0.382   0.700   6.066
 1376SOL    HW1 7922   0.427   0.610   6.063
 1376SOL    HW2 7923   0.288   0.689   6.099
 1377SOL     OW 7924   1.547   0.222   7.315
 1377SOL    HW1 7925   1.542   0.259   7.407
 1377SOL    HW2 7926   1.475   0.153   7.303
 1378SOL     OW 7927   0.614   0.122   5.703
 1378SOL    HW1 7928   0.712   0.100   5.710
 1378SOL    HW2 7929   0.583   0.105   5.610
 1379SOL     OW 7930   0.781   0.264   7.335
 1379SOL    HW1 7931   0.848   0.203   7.378
 1379SOL    HW2 7932   0.708   0.283   7.400
 1380SOL     OW 7933   0.888   1.514   6.781
 1380SOL    HW1 7934   0.865   1.489   6.687
 1380SOL    HW2 7935   0.949   1.445   6.820
 1381SOL     OW 7936   1.351   0.590   7.019
 1381SOL    HW1 7937   1.379   0.547   7.104
 1381SOL    HW2 7938   1.376   0.686   7.020
 1382SOL     OW 7939   0.803   1.402   6.510
 1382SOL    HW1 7940   0.893   1.416   6.468
 1382SOL    HW2 7941   0.732   1.404   6.439
 1383SOL     OW 7942   0.922   0.503   6.485
 1383SOL    HW1 7943   0.897   0.494   6.389
 1383SOL    HW2 7944   0.970   0.421   6.516
 1384SOL     OW 7945   0.539   0.064   6.098
 1384SOL    HW1 7946   0.458   0.065   6.156
 1384SOL    HW2 7947   0.542   0.147   6.043
 1385SOL     OW 7948   1.434   1.188   5.627
 1385SOL    HW1 7949   1.466   1.112   5.684
 1385SOL    HW2 7950   1.342   1.215   5.657
 1386SOL     OW 7951   0.935   0.236   6.066
 1386SOL    HW1 7952   0.887   0.277   5.988
 1386SOL    HW2 7953   1.034   0.234   6.047
 1387SOL     OW 7954   1.076   0.683   7.050
 1387SOL    HW1 7955   0.996   0.622   7.053
 1387SOL    HW2 7956   1.157   0.630   7.026
 1388SOL     OW 7957   1.227   1.570   6.379
 1388SOL    HW1 7958   1.248   1.644   6.314
 1388SOL    HW2 7959   1.295   1.570   6.452
 1389SOL     OW 7960   1.271   1.797   6.177
 1389SOL    HW1 7961   1.315   1.861   6.113
 1389SOL    HW2 7962   1.221   1.849   6.247
 1390SOL     OW 7963   1.032   0.549   5.602
 1390SOL    HW1 7964   0.991   0.631   5.563
 1390SOL    HW2 7965   1.096   0.575   5.675
 1391SOL     OW 7966   0.078   0.556   6.972
 1391SOL    HW1 7967   0.170   0.555   6.931
 1391SOL    HW2 7968   0.072   0.630   7.039
 1392SOL     OW 7969   0.561   0.222   6.733
 1392SOL    HW1 7970   0.599   0.138   6.770
 1392SOL    HW2 7971   0.473   0.241   6.777
 1393SOL     OW 7972   0.866   0.454   6.228
 1393SOL    HW1 7973   0.834   0.526   6.166
 1393SOL    HW2 7974   0.890   0.373   6.175
 1394SOL     OW 7975   1.017   0.039   6.339
 1394SOL    HW1 7976   0.945   0.044   6.270
 1394SOL    HW2 7977   0.993  -0.030   6.408
 1395SOL     OW 7978   1.429   1.173   6.453
 1395SOL    HW1 7979   1.374   1.089   6.446
 1395SOL    HW2 7980   1.455   1.202   6.361
 1396SOL     OW 7981   1.466   0.590   6.578
 1396SOL    HW1 7982   1.436   0.495   6.585
 1396SOL    HW2 7983   1.539   0.606   6.644
 1397SOL     OW 7984   1.857   0.833   5.963
 1397SOL    HW1 7985   1.899   0.769   6.027
 1397SOL    HW2 7986   1.819   0.782   5.885
 1398SOL     OW 7987   0.488   1.385   5.760
 1398SOL    HW1 7988   0.401   1.370   5.807
 1398SOL    HW2 7989   0.471   1.411   5.665
 1399SOL     OW 7990   1.664   1.280   6.243
 1399SOL    HW1 7991   1.763   1.288   6.257
 1399SOL    HW2 7992   1.619   1.364   6.274
 1400SOL     OW 7993   1.390   0.575   5.664
 1400SOL    HW1 7994   1.336   0.554   5.745
 1400SOL    HW2 7995   1.481   0.534   5.673
 1401SOL     OW 7996   0.527   0.256   5.914
 1401SOL    HW1 7997   0.554   0.197   5.839
 1401SOL    HW2 7998   0.527   0.351   5.883
 1402SOL     OW 7999   1.754   1.223   7.174
 1402SOL    HW1 8000   1.845   1.184   7.161
 1402SOL    HW2 8001   1.762   1.319   7.198
 1403SOL     OW 8002   1.064   1.347   6.926
 1403SOL    HW1 8003   0.984   1.324   6.981
 1403SOL    HW2 8004   1.147   1.321   6.975
 1404SOL     OW 8005   1.111   1.195   6.686
 1404SOL    HW1 8006   1.071   1.239   6.767
 1404SOL    HW2 8007   1.070   1.232   6.603
 1405SOL     OW 8008   1.638   1.099   6.665
 1405SOL    HW1 8009   1.643   1.180   6.724
 1405SOL    HW2 8010   1.552   1.101   6.614
 1406SOL     OW 8011   0.915   0.089   6.988
 1406SOL    HW1 8012   0.940   0.069   6.893
 1406SOL    HW2 8013   0.987   0.145   7.030
 1407SOL     OW 8014   0.980   1.116   7.305
 1407SOL    HW1 8015   0.881   1.122   7.315
 1407SOL    HW2 8016   1.003   1.036   7.249
 1408SOL     OW 8017   0.705   1.050   5.954
 1408SOL    HW1 8018   0.691   1.057   6.053
 1408SOL    HW2 8019   0.789   0.999   5.936
 1409SOL     OW 8020   0.410   0.813   6.837
 1409SOL    HW1 8021   0.496   0.825   6.887
 1409SOL    HW2 8022   0.368   0.726   6.864
 1410SOL     OW 8023   1.274   0.386   6.848
 1410SOL    HW1 8024   1.295   0.460   6.912
 1410SOL    HW2 8025   1.185   0.403   6.805
 1411SOL     OW 8026   0.064   1.564   6.917
 1411SOL    HW1 8027   0.018   1.646   6.883
 1411SOL    HW2 8028   0.162   1.583   6.926
 1412SOL     OW 8029   0.566   0.537   6.451
 1412SOL    HW1 8030   0.578   0.603   6.377
 1412SOL    HW2 8031   0.612   0.571   6.534
 1413SOL     OW 8032   1.252   1.348   5.974
 1413SOL    HW1 8033   1.302   1.425   6.014
 1413SOL    HW2 8034   1.157   1.350   6.006
 1414SOL     OW 8035   1.582   0.639   6.058
 1414SOL    HW1 8036   1.551   0.700   6.131
 1414SOL    HW2 8037   1.632   0.691   5.989
 1415SOL     OW 8038   0.354   1.510   6.915
 1415SOL    HW1 8039   0.333   1.466   6.828
 1415SOL    HW2 8040   0.451   1.536   6.918
 1416SOL     OW 8041   0.402   0.751   7.184
 1416SOL    HW1 8042   0.470   0.806   7.137
 1416SOL    HW2 8043   0.442   0.663   7.211
 1417SOL     OW 8044   1.587   0.779   7.256
 1417SOL    HW1 8045   1.495   0.817   7.251
 1417SOL    HW2 8046   1.647   0.826   7.191
 1418SOL     OW 8047   1.013   0.105   7.356
 1418SOL    HW1 8048   1.019   0.190   7.304
 1418SOL    HW2 8049   1.045   0.029   7.299
 1419SOL     OW 8050   0.504   0.050   7.326
 1419SOL    HW1 8051   0.462  -0.007   7.256
 1419SOL    HW2 8052   0.438   0.119   7.358
 1420SOL     OW 8053   0.573   0.870   6.615
 1420SOL    HW1 8054   0.617   0.959   6.606
 1420SOL    HW2 8055   0.510   0.870   6.692
 1421SOL     OW 8056   1.360   0.862   6.631
 1421SOL    HW1 8057   1.285   0.862   6.565
 1421SOL    HW2 8058   1.397   0.770   6.640
 1422SOL     OW 8059   1.209   0.525   5.861
 1422SOL    HW1 8060   1.222   0.441   5.915
 1422SOL    HW2 8061   1.180   0.599   5.921
 1423SOL     OW 8062   0.307   0.213   6.817
 1423SOL    HW1 8063   0.284   0.250   6.907
 1423SOL    HW2 8064   0.277   0.118   6.811
 1424SOL     OW 8065   0.037   1.310   6.868
 1424SOL    HW1 8066   0.090   1.261   6.936
 1424SOL    HW2 8067   0.059   1.408   6.873
 1425SOL     OW 8068   0.732   0.634   6.650
 1425SOL    HW1 8069   0.791   0.608   6.574
 1425SOL    HW2 8070   0.704   0.730   6.639
 1426SOL     OW 8071   1.728   0.935   7.440
 1426SOL    HW1 8072   1.682   0.928   7.351
 1426SOL    HW2 8073   1.666   0.979   7.506
 1427SOL     OW 8074   0.307   0.063   6.204
 1427SOL    HW1 8075   0.296   0.157   6.237
 1427SOL    HW2 8076   0.302   0.000   6.281
 1428SOL     OW 8077   1.622   0.367   5.960
 1428SOL    HW1 8078   1.624   0.291   6.024
 1428SOL    HW2 8079   1.574   0.444   6.000
 1429SOL     OW 8080   1.023   0.766   6.552
 1429SOL    HW1 8081   1.038   0.787   6.648
 1429SOL    HW2 8082   0.993   0.671   6.543
 1430SOL     OW 8083   0.350   0.898   7.390
 1430SOL    HW1 8084   0.426   0.942   7.438
 1430SOL    HW2 8085   0.385   0.851   7.308
 1431SOL     OW 8086   1.540   0.274   5.711
 1431SOL    HW1 8087   1.479   0.199   5.734
 1431SOL    HW2 8088   1.562   0.326   5.794
 1432SOL     OW 8089   1.303   0.838   5.628
 1432SOL    HW1 8090   1.337   0.745   5.643
 1432SOL    HW2 8091   1.321   0.865   5.533
 1433SOL     OW 8092   1.068   1.333   6.435
 1433SOL    HW1 8093   1.075   1.249   6.380
 1433SOL    HW2 8094   1.130   1.402   6.399
 1434SOL     OW 8095   1.138   0.380   7.264
 1434SOL    HW1 8096   1.093   0.443   7.328
 1434SOL    HW2 8097   1.231   0.411   7.247
 1435SOL     OW 8098   1.160   0.207   7.063
 1435SOL    HW1 8099   1.160   0.271   7.140
 1435SOL    HW2 8100   1.188   0.255   6.980
 1436SOL     OW 8101   0.008   1.326   5.786
 1436SOL    HW1 8102  -0.085   1.347   5.755
 1436SOL    HW2 8103   0.018   1.227   5.799
 1437SOL     OW 8104   0.088   1.801   6.513
 1437SOL    HW1 8105   0.046   1.715   6.486
 1437SOL    HW2 8106   0.182   1.804   6.479
 1438SOL     OW 8107   0.504   1.568   6.496
 1438SOL    HW1 8108   0.570   1.642   6.505
 1438SOL    HW2 8109   0.548   1.489   6.454
 1439SOL     OW 8110   1.002   0.796   6.824
 1439SOL    HW1 8111   1.043   0.764   6.910
 1439SOL    HW2 8112   0.906   0.769   6.821
 1440SOL     OW 8113   0.189   0.520   7.308
 1440SOL    HW1 8114   0.248   0.480   7.238
 1440SOL    HW2 8115   0.131   0.591   7.267
 1441SOL     OW 8116   1.369   0.950   7.246
 1441SOL    HW1 8117   1.408   1.039   7.266
 1441SOL    HW2 8118   1.379   0.930   7.149
 1442SOL     OW 8119   0.815   0.572   5.911
 1442SOL    HW1 8120   0.822   0.483   5.865
 1442SOL    HW2 8121   0.721   0.606   5.903
 1443SOL     OW 8122   0.252   1.564   7.330
 1443SOL    HW1 8123   0.222   1.621   7.406
 1443SOL    HW2 8124   0.245   1.467   7.356
 1444SOL     OW 8125   0.671   0.464   6.855
 1444SOL    HW1 8126   0.637   0.375   6.825
 1444SOL    HW2 8127   0.697   0.518   6.775
 1445SOL     OW 8128   0.159   1.137   7.052
 1445SOL    HW1 8129   0.181   1.076   7.128
 1445SOL    HW2 8130   0.169   1.088   6.966
 1446SOL     OW 8131   1.347   1.059   6.820
 1446SOL    HW1 8132   1.371   0.996   6.746
 1446SOL    HW2 8133   1.257   1.099   6.802
 1447SOL     OW 8134   1.302   0.855   5.895
 1447SOL    HW1 8135   1.216   0.824   5.937
 1447SOL    HW2 8136   1.298   0.841   5.796
 1448SOL     OW 8137   0.083   1.258   6.608
 1448SOL    HW1 8138   0.078   1.257   6.708
 1448SOL    HW2 8139   0.000   1.217   6.570
 1449SOL     OW 8140   0.688   1.662   7.302
 1449SOL    HW1 8141   0.632   1.743   7.311
 1449SOL    HW2 8142   0.740   1.666   7.216
 1450SOL     OW 8143   1.726   0.135   6.109
 1450SOL    HW1 8144   1.799   0.118   6.042
 1450SOL    HW2 8145   1.695   0.048   6.147
 1451SOL     OW 8146   1.388   1.573   6.063
 1451SOL    HW1 8147   1.455   1.585   5.989
 1451SOL    HW2 8148   1.348   1.662   6.086
 1452SOL     OW 8149   1.280   0.927   6.258
 1452SOL    HW1 8150   1.340   0.846   6.260
 1452SOL    HW2 8151   1.320   0.996   6.198
 1453SOL     OW 8152   0.830   1.273   7.008
 1453SOL    HW1 8153   0.825   1.306   7.103
 1453SOL    HW2 8154   0.744   1.292   6.962
 1454SOL     OW 8155   0.672   1.616   5.740
 1454SOL    HW1 8156   0.681   1.626   5.641
 1454SOL    HW2 8157   0.632   1.527   5.761
 1455SOL     OW 8158   1.841   0.175   6.549
 1455SOL    HW1 8159   1.880   0.090   6.513
 1455SOL    HW2 8160   1.743   0.177   6.530
 1456SOL     OW 8161   0.263   0.326   6.306
 1456SOL    HW1 8162   0.184   0.377   6.272
 1456SOL    HW2 8163   0.254   0.311   6.404
 1457SOL     OW 8164   1.194   1.612   5.617
 1457SOL    HW1 8165   1.200   1.519   5.654
 1457SOL    HW2 8166   1.135   1.612   5.537
 1458SOL     OW 8167   0.822   1.002   6.958
 1458SOL    HW1 8168   0.862   1.001   6.866
 1458SOL    HW2 8169   0.832   1.094   6.998
 1459SOL     OW 8170   0.916   0.910   5.877
 1459SOL    HW1 8171   0.979   0.948   5.809
 1459SOL    HW2 8172   0.956   0.827   5.916
 1460SOL     OW 8173   1.504   1.607   5.630
 1460SOL    HW1 8174   1.412   1.644   5.637
 1460SOL    HW2 8175   1.542   1.627   5.540
 1461SOL     OW 8176   0.372   1.288   7.076
 1461SOL    HW1 8177   0.359   1.381   7.042
 1461SOL    HW2 8178   0.288   1.236   7.063
 1462SOL     OW 8179   1.039   1.098   6.282
 1462SOL    HW1 8180   0.969   1.051   6.336
 1462SOL    HW2 8181   1.098   1.030   6.239
 1463SOL     OW 8182   1.014   0.236   6.557
 1463SOL    HW1 8183   1.006   0.200   6.464
 1463SOL    HW2 8184   1.012   0.160   6.622
 1464SOL     OW 8185   1.709   0.385   6.967
 1464SOL    HW1 8186   1.782   0.454   6.971
 1464SOL    HW2 8187   1.737   0.310   6.908
 1465SOL     OW 8188   0.672   0.203   7.075
 1465SOL    HW1 8189   0.762   0.187   7.035
 1465SOL    HW2 8190   0.680   0.208   7.174
 1466SOL     OW 8191   1.440   0.856   6.984
 1466SOL    HW1 8192   1.383   0.908   6.921
 1466SOL    HW2 8193   1.536   0.868   6.960
 1467SOL     OW 8194   1.183   1.335   5.705
 1467SOL    HW1 8195   1.084   1.324   5.707
 1467SOL    HW2 8196   1.217   1.350   5.798
 1468SOL     OW 8197   0.613   0.842   7.017
 1468SOL    HW1 8198   0.669   0.923   7.000
 1468SOL    HW2 8199   0.672   0.762   7.020
 1469SOL     OW 8200   1.493   1.767   6.545
 1469SOL    HW1 8201   1.526   1.831   6.476
 1469SOL    HW2 8202   1.559   1.761   6.620
 1470SOL     OW 8203   0.716   0.565   7.294
 1470SOL    HW1 8204   0.735   0.630   7.368
 1470SOL    HW2 8205   0.776   0.485   7.303
 1471SOL     OW 8206   1.450   1.220   7.219
 1471SOL    HW1 8207   1.441   1.210   7.318
 1471SOL    HW2 8208   1.546   1.213   7.193
 1472SOL     OW 8209   0.390   1.741   7.146
 1472SOL    HW1 8210   0.299   1.782   7.144
 1472SOL    HW2 8211   0.383   1.647   7.178
 1473SOL     OW 8212   1.225   0.325   6.035
 1473SOL    HW1 8213   1.290   0.251   6.024
 1473SOL    HW2 8214   1.245   0.375   6.119
 1474SOL     OW 8215   0.594   0.745   6.238
 1474SOL    HW1 8216   0.644   0.830   6.219
 1474SOL    HW2 8217   0.506   0.747   6.190
 1475SOL     OW 8218   1.777   0.342   7.228
 1475SOL    HW1 8219   1.760   0.373   7.134
 1475SOL    HW2 8220   1.693   0.305   7.266
 1476SOL     OW 8221   1.730   0.934   7.103
 1476SOL    HW1 8222   1.768   1.025   7.118
 1476SOL    HW2 8223   1.722   0.917   7.004
 1477SOL     OW 8224   0.859   1.374   5.602
 1477SOL    HW1 8225   0.813   1.389   5.690
 1477SOL    HW2 8226   0.903   1.459   5.572
 1478SOL     OW 8227   0.661   1.790   6.539
 1478SOL    HW1 8228   0.615   1.878   6.526
 1478SOL    HW2 8229   0.760   1.802   6.532
 1479SOL     OW 8230   0.859   0.956   6.447
 1479SOL    HW1 8231   0.913   0.887   6.495
 1479SOL    HW2 8232   0.827   1.025   6.513
 1480SOL     OW 8233   1.083   0.984   5.673
 1480SOL    HW1 8234   1.060   1.037   5.591
 1480SOL    HW2 8235   1.164   0.928   5.654
 1481SOL     OW 8236   1.861   1.569   6.437
 1481SOL    HW1 8237   1.790   1.557   6.367
 1481SOL    HW2 8238   1.862   1.490   6.497
 1482SOL     OW 8239   0.672   1.391   7.210
 1482SOL    HW1 8240   0.594   1.341   7.248
 1482SOL    HW2 8241   0.669   1.486   7.241
 1483SOL     OW 8242   1.824   0.192   6.813
 1483SOL    HW1 8243   1.820   0.102   6.857
 1483SOL    HW2 8244   1.827   0.181   6.714
 1484SOL     OW 8245   0.428   0.424   6.106
 1484SOL    HW1 8246   0.458   0.352   6.044
 1484SOL    HW2 8247   0.389   0.384   6.189
 1485SOL     OW 8248   0.317   0.547   6.866
 1485SOL    HW1 8249   0.355   0.488   6.938
 1485SOL    HW2 8250   0.357   0.521   6.778
 1486SOL     OW 8251   0.812   1.586   6.273
 1486SOL    HW1 8252   0.844   1.596   6.179
 1486SOL    HW2 8253   0.733   1.524   6.275
 1487SOL     OW 8254   1.424   0.214   6.698
 1487SOL    HW1 8255   1.476   0.149   6.753
 1487SOL    HW2 8256   1.375   0.277   6.759
 1488SOL     OW 8257   1.001   0.034   6.740
 1488SOL    HW1 8258   0.938  -0.038   6.709
 1488SOL    HW2 8259   1.094  -0.002   6.740
 1489SOL     OW 8260   0.618   1.567   6.870
 1489SOL    HW1 8261   0.613   1.649   6.927
 1489SOL    HW2 8262   0.707   1.564   6.825
 1490SOL     OW 8263   1.352   0.052   5.754
 1490SOL    HW1 8264   1.387   0.011   5.670
 1490SOL    HW2 8265   1.262   0.014   5.774
 1491SOL     OW 8266   1.300   0.453   6.277
 1491SOL    HW1 8267   1.241   0.533   6.281
 1491SOL    HW2 8268   1.315   0.418   6.370
 1492SOL     OW 8269   1.593   0.221   6.468
 1492SOL    HW1 8270   1.509   0.220   6.522
 1492SOL    HW2 8271   1.595   0.304   6.412
 1493SOL     OW 8272   0.039   1.077   5.886
 1493SOL    HW1 8273   0.138   1.066   5.877
 1493SOL    HW2 8274  -0.001   0.991   5.918
 1494SOL     OW 8275   0.875   1.646   5.923
 1494SOL    HW1 8276   0.798   1.611   5.869
 1494SOL    HW2 8277   0.843   1.717   5.985
 1495SOL     OW 8278   0.230   0.628   7.561
 1495SOL    HW1 8279   0.137   0.626   7.598
 1495SOL    HW2 8280   0.231   0.589   7.469
 1496SOL     OW 8281   0.225   0.275   8.444
 1496SOL    HW1 8282   0.260   0.258   8.536
 1496SOL    HW2 8283   0.137   0.230   8.432
 1497SOL     OW 8284   0.019   0.368   8.095
 1497SOL    HW1 8285  -0.063   0.411   8.134
 1497SOL    HW2 8286  -0.009   0.295   8.032
 1498SOL     OW 8287   0.569   1.275   8.613
 1498SOL    HW1 8288   0.476   1.268   8.576
 1498SOL    HW2 8289   0.580   1.364   8.657
 1499SOL     OW 8290   1.555   1.511   8.151
 1499SOL    HW1 8291   1.498   1.495   8.232
 1499SOL    HW2 8292   1.496   1.521   8.071
 1500SOL     OW 8293   1.135   0.703   8.165
 1500SOL    HW1 8294   1.192   0.781   8.140
 1500SOL    HW2 8295   1.075   0.729   8.241
 1501SOL     OW 8296   0.768   1.144   8.471
 1501SOL    HW1 8297   0.690   1.161   8.531
 1501SOL    HW2 8298   0.802   1.231   8.435
 1502SOL     OW 8299   0.850   0.798   9.271
 1502SOL    HW1 8300   0.846   0.874   9.336
 1502SOL    HW2 8301   0.872   0.834   9.180
 1503SOL     OW 8302   0.685   1.012   8.113
 1503SOL    HW1 8303   0.754   0.996   8.183
 1503SOL    HW2 8304   0.612   1.069   8.151
 1504SOL     OW 8305   0.686   1.161   9.251
 1504SOL    HW1 8306   0.746   1.240   9.265
 1504SOL    HW2 8307   0.600   1.192   9.210
 1505SOL     OW 8308   0.335   1.435   8.509
 1505SOL    HW1 8309   0.257   1.404   8.456
 1505SOL    HW2 8310   0.393   1.493   8.452
 1506SOL     OW 8311   1.460   1.505   8.787
 1506SOL    HW1 8312   1.484   1.599   8.813
 1506SOL    HW2 8313   1.444   1.451   8.869
 1507SOL     OW 8314   0.438   0.392   8.947
 1507SOL    HW1 8315   0.520   0.336   8.956
 1507SOL    HW2 8316   0.357   0.334   8.951
 1508SOL     OW 8317   1.127   1.341   9.138
 1508SOL    HW1 8318   1.174   1.341   9.226
 1508SOL    HW2 8319   1.079   1.254   9.127
 1509SOL     OW 8320   0.230   1.434   7.986
 1509SOL    HW1 8321   0.204   1.530   7.986
 1509SOL    HW2 8322   0.159   1.380   8.031
 1510SOL     OW 8323   0.240   1.091   8.334
 1510SOL    HW1 8324   0.254   1.007   8.386
 1510SOL    HW2 8325   0.185   1.155   8.389
 1511SOL     OW 8326   0.620   1.786   8.887
 1511SOL    HW1 8327   0.528   1.769   8.922
 1511SOL    HW2 8328   0.648   1.878   8.913
 1512SOL     OW 8329   0.606   0.964   7.571
 1512SOL    HW1 8330   0.613   1.048   7.517
 1512SOL    HW2 8331   0.652   0.977   7.659
 1513SOL     OW 8332   1.594   0.114   8.928
 1513SOL    HW1 8333   1.576   0.181   8.856
 1513SOL    HW2 8334   1.591   0.160   9.017
 1514SOL     OW 8335   0.122   0.643   8.011
 1514SOL    HW1 8336   0.077   0.555   8.028
 1514SOL    HW2 8337   0.121   0.697   8.095
 1515SOL     OW 8338   1.842   1.767   7.807
 1515SOL    HW1 8339   1.896   1.738   7.887
 1515SOL    HW2 8340   1.872   1.857   7.778
 1516SOL     OW 8341   0.113   0.737   9.045
 1516SOL    HW1 8342   0.201   0.724   9.090
 1516SOL    HW2 8343   0.100   0.834   9.023
 1517SOL     OW 8344   0.613   1.365   8.174
 1517SOL    HW1 8345   0.564   1.278   8.183
 1517SOL    HW2 8346   0.590   1.408   8.087
 1518SOL     OW 8347   1.293   1.228   8.871
 1518SOL    HW1 8348   1.330   1.155   8.813
 1518SOL    HW2 8349   1.345   1.233   8.956
 1519SOL     OW 8350   0.809   0.004   7.950
 1519SOL    HW1 8351   0.849   0.095   7.941
 1519SOL    HW2 8352   0.709   0.012   7.956
 1520SOL     OW 8353   0.197   0.976   8.712
 1520SOL    HW1 8354   0.286   0.931   8.698
 1520SOL    HW2 8355   0.124   0.911   8.693
 1521SOL     OW 8356   1.525   0.999   7.638
 1521SOL    HW1 8357   1.462   0.923   7.651
 1521SOL    HW2 8358   1.573   1.017   7.724
 1522SOL     OW 8359   1.187   1.792   9.064
 1522SOL    HW1 8360   1.211   1.852   8.988
 1522SOL    HW2 8361   1.194   1.697   9.034
 1523SOL     OW 8362   0.317   0.251   9.249
 1523SOL    HW1 8363   0.388   0.322   9.255
 1523SOL    HW2 8364   0.229   0.290   9.277
 1524SOL     OW 8365   1.466   1.417   8.401
 1524SOL    HW1 8366   1.407   1.423   8.481
 1524SOL    HW2 8367   1.451   1.329   8.355
 1525SOL     OW 8368   1.667   1.714   8.020
 1525SOL    HW1 8369   1.626   1.691   7.932
 1525SOL    HW2 8370   1.649   1.640   8.085
 1526SOL     OW 8371   0.598   0.729   7.718
 1526SOL    HW1 8372   0.622   0.798   7.650
 1526SOL    HW2 8373   0.520   0.762   7.772
 1527SOL     OW 8374   1.281   0.345   8.392
 1527SOL    HW1 8375   1.195   0.295   8.379
 1527SOL    HW2 8376   1.343   0.291   8.448
 1528SOL     OW 8377   1.576   1.662   7.755
 1528SOL    HW1 8378   1.665   1.708   7.758
 1528SOL    HW2 8379   1.555   1.638   7.660
 1529SOL     OW 8380   0.807   0.605   8.913
 1529SOL    HW1 8381   0.760   0.602   9.002
 1529SOL    HW2 8382   0.756   0.550   8.847
 1530SOL     OW 8383   1.394   0.469   9.122
 1530SOL    HW1 8384   1.374   0.512   9.210
 1530SOL    HW2 8385   1.472   0.407   9.131
 1531SOL     OW 8386   0.973   0.890   9.020
 1531SOL    HW1 8387   1.019   0.806   8.991
 1531SOL    HW2 8388   0.917   0.924   8.945
 1532SOL     OW 8389   0.991   0.410   8.690
 1532SOL    HW1 8390   0.914   0.444   8.744
 1532SOL    HW2 8391   0.957   0.359   8.611
 1533SOL     OW 8392   1.041   0.701   7.877
 1533SOL    HW1 8393   1.067   0.697   7.973
 1533SOL    HW2 8394   0.956   0.650   7.863
 1534SOL     OW 8395   0.076   0.811   8.237
 1534SOL    HW1 8396   0.175   0.799   8.246
 1534SOL    HW2 8397   0.052   0.906   8.258
 1535SOL     OW 8398   0.130   1.821   9.019
 1535SOL    HW1 8399   0.120   1.806   9.118
 1535SOL    HW2 8400   0.044   1.857   8.983
 1536SOL     OW 8401   0.865   0.348   7.643
 1536SOL    HW1 8402   0.924   0.411   7.594
 1536SOL    HW2 8403   0.884   0.254   7.614
 1537SOL     OW 8404   1.719   0.585   9.279
 1537SOL    HW1 8405   1.693   0.674   9.243
 1537SOL    HW2 8406   1.717   0.517   9.206
 1538SOL     OW 8407   0.550   0.196   8.333
 1538SOL    HW1 8408   0.545   0.191   8.433
 1538SOL    HW2 8409   0.552   0.292   8.304
 1539SOL     OW 8410   1.008   1.456   7.925
 1539SOL    HW1 8411   0.962   1.528   7.873
 1539SOL    HW2 8412   1.004   1.476   8.023
 1540SOL     OW 8413   0.351   1.801   8.301
 1540SOL    HW1 8414   0.401   1.715   8.307
 1540SOL    HW2 8415   0.416   1.878   8.298
 1541SOL     OW 8416   1.227   1.550   8.954
 1541SOL    HW1 8417   1.233   1.473   9.018
 1541SOL    HW2 8418   1.175   1.524   8.874
 1542SOL     OW 8419   0.321   0.943   7.690
 1542SOL    HW1 8420   0.403   0.982   7.648
 1542SOL    HW2 8421   0.294   0.861   7.641
 1543SOL     OW 8422   0.461   1.266   9.175
 1543SOL    HW1 8423   0.411   1.267   9.089
 1543SOL    HW2 8424   0.398   1.248   9.251
 1544SOL     OW 8425   1.111   1.776   7.685
 1544SOL    HW1 8426   1.051   1.714   7.735
 1544SOL    HW2 8427   1.142   1.732   7.600
 1545SOL     OW 8428   0.202   0.285   8.946
 1545SOL    HW1 8429   0.122   0.345   8.933
 1545SOL    HW2 8430   0.192   0.236   9.032
 1546SOL     OW 8431   1.632   1.377   7.529
 1546SOL    HW1 8432   1.600   1.471   7.519
 1546SOL    HW2 8433   1.556   1.314   7.517
 1547SOL     OW 8434   0.464   1.743   7.771
 1547SOL    HW1 8435   0.497   1.782   7.857
 1547SOL    HW2 8436   0.540   1.736   7.706
 1548SOL     OW 8437   1.400   0.107   7.874
 1548SOL    HW1 8438   1.376   0.070   7.784
 1548SOL    HW2 8439   1.499   0.123   7.878
 1549SOL     OW 8440   0.249   1.785   8.689
 1549SOL    HW1 8441   0.306   1.720   8.739
 1549SOL    HW2 8442   0.233   1.752   8.596
 1550SOL     OW 8443   0.940   1.698   8.352
 1550SOL    HW1 8444   1.020   1.641   8.373
 1550SOL    HW2 8445   0.891   1.658   8.275
 1551SOL     OW 8446   0.382   0.700   7.928
 1551SOL    HW1 8447   0.427   0.610   7.925
 1551SOL    HW2 8448   0.288   0.689   7.961
 1552SOL     OW 8449   1.547   0.222   9.177
 1552SOL    HW1 8450   1.542   0.259   9.269
 1552SOL    HW2 8451   1.475   0.153   9.165
 1553SOL     OW 8452   0.614   0.122   7.565
 1553SOL    HW1 8453   0.712   0.100   7.572
 1553SOL    HW2 8454   0.583   0.105   7.472
 1554SOL     OW 8455   0.781   0.264   9.197
 1554SOL    HW1 8456   0.848   0.203   9.240
 1554SOL    HW2 8457   0.708   0.283   9.262
 1555SOL     OW 8458   0.888   1.514   8.643
 1555SOL    HW1 8459   0.865   1.489   8.549
 1555SOL    HW2 8460   0.949   1.445   8.682
 1556SOL     OW 8461   1.351   0.590   8.881
 1556SOL    HW1 8462   1.379   0.547   8.966
 1556SOL    HW2 8463   1.376   0.686   8.882
 1557SOL     OW 8464   0.803   1.402   8.372
 1557SOL    HW1 8465   0.893   1.416   8.330
 1557SOL    HW2 8466   0.732   1.404   8.301
 1558SOL     OW 8467   0.922   0.503   8.347
 1558SOL    HW1 8468   0.897   0.494   8.251
 1558SOL    HW2 8469   0.970   0.421   8.378
 1559SOL     OW 8470   0.539   0.064   7.960
 1559SOL    HW1 8471   0.458   0.065   8.018
 1559SOL    HW2 8472   0.542   0.147   7.905
 1560SOL     OW 8473   1.434   1.188   7.489
 1560SOL    HW1 8474   1.466   1.112   7.546
 1560SOL    HW2 8475   1.342   1.215   7.519
 1561SOL     OW 8476   0.297   0.035   7.619
 1561SOL    HW1 8477   0.346   0.119   7.598
 1561SOL    HW2 8478   0.359  -0.030   7.664
 1562SOL     OW 8479   0.935   0.236   7.928
 1562SOL    HW1 8480   0.887   0.277   7.850
 1562SOL    HW2 8481   1.034   0.234   7.909
 1563SOL     OW 8482   1.076   0.683   8.912
 1563SOL    HW1 8483   0.996   0.622   8.915
 1563SOL    HW2 8484   1.157   0.630   8.888
 1564SOL     OW 8485   1.227   1.570   8.241
 1564SOL    HW1 8486   1.248   1.644   8.176
 1564SOL    HW2 8487   1.295   1.570   8.314
 1565SOL     OW 8488   0.459   1.152   8.189
 1565SOL    HW1 8489   0.388   1.125   8.254
 1565SOL    HW2 8490   0.433   1.124   8.096
 1566SOL     OW 8491   1.271   1.797   8.039
 1566SOL    HW1 8492   1.315   1.861   7.975
 1566SOL    HW2 8493   1.221   1.849   8.109
 1567SOL     OW 8494   1.032   0.549   7.464
 1567SOL    HW1 8495   0.991   0.631   7.425
 1567SOL    HW2 8496   1.096   0.575   7.537
 1568SOL     OW 8497   0.078   0.556   8.834
 1568SOL    HW1 8498   0.170   0.555   8.793
 1568SOL    HW2 8499   0.072   0.630   8.901
 1569SOL     OW 8500   0.561   0.222   8.595
 1569SOL    HW1 8501   0.599   0.138   8.632
 1569SOL    HW2 8502   0.473   0.241   8.639
 1570SOL     OW 8503   0.866   0.454   8.090
 1570SOL    HW1 8504   0.834   0.526   8.028
 1570SOL    HW2 8505   0.890   0.373   8.037
 1571SOL     OW 8506   1.017   0.039   8.201
 1571SOL    HW1 8507   0.945   0.044   8.132
 1571SOL    HW2 8508   0.993  -0.030   8.270
 1572SOL     OW 8509   1.466   0.590   8.440
 1572SOL    HW1 8510   1.436   0.495   8.447
 1572SOL    HW2 8511   1.539   0.606   8.506
 1573SOL     OW 8512   1.857   0.833   7.825
 1573SOL    HW1 8513   1.899   0.769   7.889
 1573SOL    HW2 8514   1.819   0.782   7.747
 1574SOL     OW 8515   0.488   1.385   7.622
 1574SOL    HW1 8516   0.401   1.370   7.669
 1574SOL    HW2 8517   0.471   1.411   7.527
 1575SOL     OW 8518   1.390   0.575   7.526
 1575SOL    HW1 8519   1.336   0.554   7.607
 1575SOL    HW2 8520   1.481   0.534   7.535
 1576SOL     OW 8521   0.527   0.256   7.776
 1576SOL    HW1 8522   0.554   0.197   7.701
 1576SOL    HW2 8523   0.527   0.351   7.745
 1577SOL     OW 8524   1.754   1.223   9.036
 1577SOL    HW1 8525   1.845   1.184   9.023
 1577SOL    HW2 8526   1.762   1.319   9.060
 1578SOL     OW 8527   1.064   1.347   8.788
 1578SOL    HW1 8528   0.984   1.324   8.843
 1578SOL    HW2 8529   1.147   1.321   8.837
 1579SOL     OW 8530   1.592   1.629   9.073
 1579SOL    HW1 8531   1.619   1.663   8.983
 1579SOL    HW2 8532   1.671   1.591   9.119
 1580SOL     OW 8533   1.111   1.195   8.548
 1580SOL    HW1 8534   1.071   1.239   8.629
 1580SOL    HW2 8535   1.070   1.232   8.465
 1581SOL     OW 8536   1.638   1.099   8.527
 1581SOL    HW1 8537   1.643   1.180   8.586
 1581SOL    HW2 8538   1.552   1.101   8.476
 1582SOL     OW 8539   0.915   0.089   8.850
 1582SOL    HW1 8540   0.940   0.069   8.755
 1582SOL    HW2 8541   0.987   0.145   8.892
 1583SOL     OW 8542   0.980   1.116   9.167
 1583SOL    HW1 8543   0.881   1.122   9.177
 1583SOL    HW2 8544   1.003   1.036   9.111
 1584SOL     OW 8545   0.705   1.050   7.816
 1584SOL    HW1 8546   0.691   1.057   7.915
 1584SOL    HW2 8547   0.789   0.999   7.798
 1585SOL     OW 8548   0.410   0.813   8.699
 1585SOL    HW1 8549   0.496   0.825   8.749
 1585SOL    HW2 8550   0.368   0.726   8.726
 1586SOL     OW 8551   1.274   0.386   8.710
 1586SOL    HW1 8552   1.295   0.460   8.774
 1586SOL    HW2 8553   1.185   0.403   8.667
 1587SOL     OW 8554   0.064   1.564   8.779
 1587SOL    HW1 8555   0.018   1.646   8.745
 1587SOL    HW2 8556   0.162   1.583   8.788
 1588SOL     OW 8557   0.367   1.100   7.949
 1588SOL    HW1 8558   0.360   1.183   7.893
 1588SOL    HW2 8559   0.371   1.020   7.889
 1589SOL     OW 8560   0.566   0.537   8.313
 1589SOL    HW1 8561   0.578   0.603   8.239
 1589SOL    HW2 8562   0.612   0.571   8.396
 1590SOL     OW 8563   1.252   1.348   7.836
 1590SOL    HW1 8564   1.302   1.425   7.876
 1590SOL    HW2 8565   1.157   1.350   7.868
 1591SOL     OW 8566   1.272   1.445   8.590
 1591SOL    HW1 8567   1.319   1.458   8.677
 1591SOL    HW2 8568   1.206   1.371   8.599
 1592SOL     OW 8569   1.582   0.639   7.920
 1592SOL    HW1 8570   1.551   0.700   7.993
 1592SOL    HW2 8571   1.632   0.691   7.851
 1593SOL     OW 8572   0.354   1.510   8.777
 1593SOL    HW1 8573   0.333   1.466   8.690
 1593SOL    HW2 8574   0.451   1.536   8.780
 1594SOL     OW 8575   0.402   0.751   9.046
 1594SOL    HW1 8576   0.470   0.806   8.999
 1594SOL    HW2 8577   0.442   0.663   9.073
 1595SOL     OW 8578   1.587   0.779   9.118
 1595SOL    HW1 8579   1.495   0.817   9.113
 1595SOL    HW2 8580   1.647   0.826   9.053
 1596SOL     OW 8581   1.013   0.105   9.218
 1596SOL    HW1 8582   1.019   0.190   9.166
 1596SOL    HW2 8583   1.045   0.029   9.161
 1597SOL     OW 8584   0.504   0.050   9.188
 1597SOL    HW1 8585   0.462  -0.007   9.118
 1597SOL    HW2 8586   0.438   0.119   9.220
 1598SOL     OW 8587   0.573   0.870   8.477
 1598SOL    HW1 8588   0.617   0.959   8.468
 1598SOL    HW2 8589   0.510   0.870   8.554
 1599SOL     OW 8590   1.360   0.862   8.493
 1599SOL    HW1 8591   1.285   0.862   8.427
 1599SOL    HW2 8592   1.397   0.770   8.502
 1600SOL     OW 8593   1.209   0.525   7.723
 1600SOL    HW1 8594   1.222   0.441   7.777
 1600SOL    HW2 8595   1.180   0.599   7.783
 1601SOL     OW 8596   0.307   0.213   8.679
 1601SOL    HW1 8597   0.284   0.250   8.769
 1601SOL    HW2 8598   0.277   0.118   8.673
 1602SOL     OW 8599   0.037   1.310   8.730
 1602SOL    HW1 8600   0.090   1.261   8.798
 1602SOL    HW2 8601   0.059   1.408   8.735
 1603SOL     OW 8602   0.732   0.634   8.512
 1603SOL    HW1 8603   0.791   0.608   8.436
 1603SOL    HW2 8604   0.704   0.730   8.501
 1604SOL     OW 8605   1.728   0.935   9.302
 1604SOL    HW1 8606   1.682   0.928   9.213
 1604SOL    HW2 8607   1.666   0.979   9.368
 1605SOL     OW 8608   0.307   0.063   8.066
 1605SOL    HW1 8609   0.296   0.157   8.099
 1605SOL    HW2 8610   0.302   0.000   8.143
 1606SOL     OW 8611   1.622   0.367   7.822
 1606SOL    HW1 8612   1.624   0.291   7.886
 1606SOL    HW2 8613   1.574   0.444   7.862
 1607SOL     OW 8614   1.023   0.766   8.414
 1607SOL    HW1 8615   1.038   0.787   8.510
 1607SOL    HW2 8616   0.993   0.671   8.405
 1608SOL     OW 8617   0.980   1.573   9.148
 1608SOL    HW1 8618   0.960   1.617   9.060
 1608SOL    HW2 8619   1.019   1.482   9.132
 1609SOL     OW 8620   1.859   1.518   9.053
 1609SOL    HW1 8621   1.873   1.545   8.958
 1609SOL    HW2 8622   1.942   1.540   9.106
 1610SOL     OW 8623   0.350   0.898   9.252
 1610SOL    HW1 8624   0.426   0.942   9.300
 1610SOL    HW2 8625   0.385   0.851   9.170
 1611SOL     OW 8626   1.540   0.274   7.573
 1611SOL    HW1 8627   1.479   0.199   7.596
 1611SOL    HW2 8628   1.562   0.326   7.656
 1612SOL     OW 8629   1.303   0.838   7.490
 1612SOL    HW1 8630   1.337   0.745   7.505
 1612SOL    HW2 8631   1.321   0.865   7.395
 1613SOL     OW 8632   1.068   1.333   8.297
 1613SOL    HW1 8633   1.075   1.249   8.242
 1613SOL    HW2 8634   1.130   1.402   8.261
 1614SOL     OW 8635   0.319   0.810   8.397
 1614SOL    HW1 8636   0.412   0.846   8.402
 1614SOL    HW2 8637   0.313   0.725   8.449
 1615SOL     OW 8638   0.339   0.509   8.454
 1615SOL    HW1 8639   0.287   0.426   8.437
 1615SOL    HW2 8640   0.416   0.514   8.390
 1616SOL     OW 8641   1.138   0.380   9.126
 1616SOL    HW1 8642   1.093   0.443   9.190
 1616SOL    HW2 8643   1.231   0.411   9.109
 1617SOL     OW 8644   1.160   0.207   8.925
 1617SOL    HW1 8645   1.160   0.271   9.002
 1617SOL    HW2 8646   1.188   0.255   8.842
 1618SOL     OW 8647   0.008   1.326   7.648
 1618SOL    HW1 8648  -0.085   1.347   7.617
 1618SOL    HW2 8649   0.018   1.227   7.661
 1619SOL     OW 8650   0.088   1.801   8.375
 1619SOL    HW1 8651   0.046   1.715   8.348
 1619SOL    HW2 8652   0.182   1.804   8.341
 1620SOL     OW 8653   0.504   1.568   8.358
 1620SOL    HW1 8654   0.570   1.642   8.367
 1620SOL    HW2 8655   0.548   1.489   8.316
 1621SOL     OW 8656   1.002   0.796   8.686
 1621SOL    HW1 8657   1.043   0.764   8.772
 1621SOL    HW2 8658   0.906   0.769   8.683
 1622SOL     OW 8659   0.040   0.544   8.562
 1622SOL    HW1 8660   0.125   0.511   8.521
 1622SOL    HW2 8661   0.053   0.559   8.660
 1623SOL     OW 8662   0.189   0.520   9.170
 1623SOL    HW1 8663   0.248   0.480   9.100
 1623SOL    HW2 8664   0.131   0.591   9.129
 1624SOL     OW 8665   1.369   0.950   9.108
 1624SOL    HW1 8666   1.408   1.039   9.128
 1624SOL    HW2 8667   1.379   0.930   9.011
 1625SOL     OW 8668   0.815   0.572   7.773
 1625SOL    HW1 8669   0.822   0.483   7.727
 1625SOL    HW2 8670   0.721   0.606   7.765
 1626SOL     OW 8671   1.657   0.604   8.654
 1626SOL    HW1 8672   1.619   0.535   8.716
 1626SOL    HW2 8673   1.739   0.568   8.610
 1627SOL     OW 8674   0.252   1.564   9.192
 1627SOL    HW1 8675   0.222   1.621   9.268
 1627SOL    HW2 8676   0.245   1.467   9.218
 1628SOL     OW 8677   0.671   0.464   8.717
 1628SOL    HW1 8678   0.637   0.375   8.687
 1628SOL    HW2 8679   0.697   0.518   8.637
 1629SOL     OW 8680   0.930   1.678   8.913
 1629SOL    HW1 8681   0.906   1.660   8.818
 1629SOL    HW2 8682   0.960   1.772   8.923
 1630SOL     OW 8683   0.473   0.500   7.639
 1630SOL    HW1 8684   0.534   0.580   7.643
 1630SOL    HW2 8685   0.378   0.531   7.646
 1631SOL     OW 8686   0.159   1.137   8.914
 1631SOL    HW1 8687   0.181   1.076   8.990
 1631SOL    HW2 8688   0.169   1.088   8.828
 1632SOL     OW 8689   1.347   1.059   8.682
 1632SOL    HW1 8690   1.371   0.996   8.608
 1632SOL    HW2 8691   1.257   1.099   8.664
 1633SOL     OW 8692   1.302   0.855   7.757
 1633SOL    HW1 8693   1.216   0.824   7.799
 1633SOL    HW2 8694   1.298   0.841   7.658
 1634SOL     OW 8695   1.759   1.747   8.602
 1634SOL    HW1 8696   1.820   1.777   8.529
 1634SOL    HW2 8697   1.721   1.658   8.580
 1635SOL     OW 8698   1.252   1.731   8.576
 1635SOL    HW1 8699   1.336   1.736   8.522
 1635SOL    HW2 8700   1.229   1.635   8.594
 1636SOL     OW 8701   0.083   1.258   8.470
 1636SOL    HW1 8702   0.078   1.257   8.570
 1636SOL    HW2 8703   0.000   1.217   8.432
 1637SOL     OW 8704   0.688   1.662   9.164
 1637SOL    HW1 8705   0.632   1.743   9.173
 1637SOL    HW2 8706   0.740   1.666   9.078
 1638SOL     OW 8707   1.726   0.135   7.971
 1638SOL    HW1 8708   1.799   0.118   7.904
 1638SOL    HW2 8709   1.695   0.048   8.009
 1639SOL     OW 8710   1.388   1.573   7.925
 1639SOL    HW1 8711   1.455   1.585   7.851
 1639SOL    HW2 8712   1.348   1.662   7.948
 1640SOL     OW 8713   0.130   1.794   9.299
 1640SOL    HW1 8714   0.089   1.720   9.352
 1640SOL    HW2 8715   0.194   1.845   9.357
 1641SOL     OW 8716   1.280   0.927   8.120
 1641SOL    HW1 8717   1.340   0.846   8.122
 1641SOL    HW2 8718   1.320   0.996   8.060
 1642SOL     OW 8719   0.830   1.273   8.870
 1642SOL    HW1 8720   0.825   1.306   8.965
 1642SOL    HW2 8721   0.744   1.292   8.824
 1643SOL     OW 8722   0.672   1.616   7.602
 1643SOL    HW1 8723   0.681   1.626   7.503
 1643SOL    HW2 8724   0.632   1.527   7.623
 1644SOL     OW 8725   1.650   1.720   8.842
 1644SOL    HW1 8726   1.703   1.730   8.758
 1644SOL    HW2 8727   1.623   1.810   8.876
 1645SOL     OW 8728   0.263   0.326   8.168
 1645SOL    HW1 8729   0.184   0.377   8.134
 1645SOL    HW2 8730   0.254   0.311   8.266
 1646SOL     OW 8731   1.194   1.612   7.479
 1646SOL    HW1 8732   1.200   1.519   7.516
 1646SOL    HW2 8733   1.135   1.612   7.399
 1647SOL     OW 8734   0.822   1.002   8.820
 1647SOL    HW1 8735   0.862   1.001   8.728
 1647SOL    HW2 8736   0.832   1.094   8.860
 1648SOL     OW 8737   0.916   0.910   7.739
 1648SOL    HW1 8738   0.979   0.948   7.671
 1648SOL    HW2 8739   0.956   0.827   7.778
 1649SOL     OW 8740   1.504   1.607   7.492
 1649SOL    HW1 8741   1.412   1.644   7.499
 1649SOL    HW2 8742   1.542   1.627   7.402
 1650SOL     OW 8743   0.372   1.288   8.938
 1650SOL    HW1 8744   0.359   1.381   8.904
 1650SOL    HW2 8745   0.288   1.236   8.925
 1651SOL     OW 8746   1.614   1.292   8.737
 1651SOL    HW1 8747   1.674   1.295   8.817
 1651SOL    HW2 8748   1.539   1.356   8.750
 1652SOL     OW 8749   1.039   1.098   8.144
 1652SOL    HW1 8750   0.969   1.051   8.198
 1652SOL    HW2 8751   1.098   1.030   8.101
 1653SOL     OW 8752   1.014   0.236   8.419
 1653SOL    HW1 8753   1.006   0.200   8.326
 1653SOL    HW2 8754   1.012   0.160   8.484
 1654SOL     OW 8755   0.590   1.487   7.939
 1654SOL    HW1 8756   0.632   1.429   7.869
 1654SOL    HW2 8757   0.546   1.566   7.895
 1655SOL     OW 8758   1.709   0.385   8.829
 1655SOL    HW1 8759   1.782   0.454   8.833
 1655SOL    HW2 8760   1.737   0.310   8.770
 1656SOL     OW 8761   0.255   1.348   7.738
 1656SOL    HW1 8762   0.159   1.349   7.711
 1656SOL    HW2 8763   0.267   1.401   7.822
 1657SOL     OW 8764   0.105   1.013   9.174
 1657SOL    HW1 8765   0.028   0.980   9.228
 1657SOL    HW2 8766   0.190   0.983   9.216
 1658SOL     OW 8767   0.672   0.203   8.937
 1658SOL    HW1 8768   0.762   0.187   8.897
 1658SOL    HW2 8769   0.680   0.208   9.036
 1659SOL     OW 8770   0.075   0.345   7.481
 1659SOL    HW1 8771  -0.017   0.317   7.452
 1659SOL    HW2 8772   0.106   0.422   7.425
 1660SOL     OW 8773   1.440   0.856   8.846
 1660SOL    HW1 8774   1.383   0.908   8.783
 1660SOL    HW2 8775   1.536   0.868   8.822
 1661SOL     OW 8776   0.072   0.166   7.766
 1661SOL    HW1 8777   0.055   0.249   7.712
 1661SOL    HW2 8778   0.162   0.129   7.744
 1662SOL     OW 8779   1.183   1.335   7.567
 1662SOL    HW1 8780   1.084   1.324   7.569
 1662SOL    HW2 8781   1.217   1.350   7.660
 1663SOL     OW 8782   0.613   0.842   8.879
 1663SOL    HW1 8783   0.669   0.923   8.862
 1663SOL    HW2 8784   0.672   0.762   8.882
 1664SOL     OW 8785   1.493   1.767   8.407
 1664SOL    HW1 8786   1.526   1.831   8.338
 1664SOL    HW2 8787   1.559   1.761   8.482
 1665SOL     OW 8788   0.716   0.565   9.156
 1665SOL    HW1 8789   0.735   0.630   9.230
 1665SOL    HW2 8790   0.776   0.485   9.165
 1666SOL     OW 8791   1.450   1.220   9.081
 1666SOL    HW1 8792   1.441   1.210   9.180
 1666SOL    HW2 8793   1.546   1.213   9.055
 1667SOL     OW 8794   0.390   1.741   9.008
 1667SOL    HW1 8795   0.299   1.782   9.006
 1667SOL    HW2 8796   0.383   1.647   9.040
 1668SOL     OW 8797   1.674   0.883   8.702
 1668SOL    HW1 8798   1.647   0.794   8.665
 1668SOL    HW2 8799   1.675   0.951   8.629
 1669SOL     OW 8800   1.225   0.325   7.897
 1669SOL    HW1 8801   1.290   0.251   7.886
 1669SOL    HW2 8802   1.245   0.375   7.981
 1670SOL     OW 8803   0.594   0.745   8.100
 1670SOL    HW1 8804   0.644   0.830   8.081
 1670SOL    HW2 8805   0.506   0.747   8.052
 1671SOL     OW 8806   1.777   0.342   9.090
 1671SOL    HW1 8807   1.760   0.373   8.996
 1671SOL    HW2 8808   1.693   0.305   9.128
 1672SOL     OW 8809   1.730   0.934   8.965
 1672SOL    HW1 8810   1.768   1.025   8.980
 1672SOL    HW2 8811   1.722   0.917   8.866
 1673SOL     OW 8812   0.859   1.374   7.464
 1673SOL    HW1 8813   0.813   1.389   7.552
 1673SOL    HW2 8814   0.903   1.459   7.434
 1674SOL     OW 8815   0.661   1.790   8.401
 1674SOL    HW1 8816   0.615   1.878   8.388
 1674SOL    HW2 8817   0.760   1.802   8.394
 1675SOL     OW 8818   0.859   0.956   8.309
 1675SOL    HW1 8819   0.913   0.887   8.357
 1675SOL    HW2 8820   0.827   1.025   8.375
 1676SOL     OW 8821   1.083   0.984   7.535
 1676SOL    HW1 8822   1.060   1.037   7.453
 1676SOL    HW2 8823   1.164   0.928   7.516
 1677SOL     OW 8824   1.861   1.569   8.299
 1677SOL    HW1 8825   1.790   1.557   8.229
 1677SOL    HW2 8826   1.862   1.490   8.359
 1678SOL     OW 8827   0.221   1.314   9.292
 1678SOL    HW1 8828   0.156   1.241   9.271
 1678SOL    HW2 8829   0.225   1.328   9.390
 1679SOL     OW 8830   0.079   1.240   8.101
 1679SOL    HW1 8831   0.078   1.193   8.189
 1679SOL    HW2 8832   0.161   1.212   8.050
 1680SOL     OW 8833   0.672   1.391   9.072
 1680SOL    HW1 8834   0.594   1.341   9.110
 1680SOL    HW2 8835   0.669   1.486   9.103
 1681SOL     OW 8836   0.428   0.424   7.968
 1681SOL    HW1 8837   0.458   0.352   7.906
 1681SOL    HW2 8838   0.389   0.384   8.051
 1682SOL     OW 8839   1.705   1.487   8.552
 1682SOL    HW1 8840   1.612   1.462   8.525
 1682SOL    HW2 8841   1.731   1.437   8.634
 1683SOL     OW 8842   0.317   0.547   8.728
 1683SOL    HW1 8843   0.355   0.488   8.800
 1683SOL    HW2 8844   0.357   0.521   8.640
 1684SOL     OW 8845   0.812   1.586   8.135
 1684SOL    HW1 8846   0.844   1.596   8.041
 1684SOL    HW2 8847   0.733   1.524   8.137
 1685SOL     OW 8848   1.424   0.214   8.560
 1685SOL    HW1 8849   1.476   0.149   8.615
 1685SOL    HW2 8850   1.375   0.277   8.621
 1686SOL     OW 8851   1.001   0.034   8.602
 1686SOL    HW1 8852   0.938  -0.038   8.571
 1686SOL    HW2 8853   1.094  -0.002   8.602
 1687SOL     OW 8854   0.770   1.330   7.749
 1687SOL    HW1 8855   0.724   1.243   7.766
 1687SOL    HW2 8856   0.861   1.327   7.790
 1688SOL     OW 8857   0.618   1.567   8.732
 1688SOL    HW1 8858   0.613   1.649   8.789
 1688SOL    HW2 8859   0.707   1.564   8.687
 1689SOL     OW 8860   1.352   0.052   7.616
 1689SOL    HW1 8861   1.387   0.011   7.532
 1689SOL    HW2 8862   1.262   0.014   7.636
 1690SOL     OW 8863   1.300   0.453   8.139
 1690SOL    HW1 8864   1.241   0.533   8.143
 1690SOL    HW2 8865   1.315   0.418   8.232
 1691SOL     OW 8866   0.039   1.077   7.748
 1691SOL    HW1 8867   0.138   1.066   7.739
 1691SOL    HW2 8868  -0.001   0.991   7.780
 1692SOL     OW 8869   0.875   1.646   7.785
 1692SOL    HW1 8870   0.798   1.611   7.731
 1692SOL    HW2 8871   0.843   1.717   7.847
 1693SOL     OW 8872   0.230   0.628   9.423
 1693SOL    HW1 8873   0.137   0.626   9.460
 1693SOL    HW2 8874   0.231   0.589   9.331
 1694SOL     OW 8875   1.755   0.607   9.541
 1694SOL    HW1 8876   1.743   0.594   9.442
 1694SOL    HW2 8877   1.725   0.526   9.590
 1695SOL     OW 8878   0.231   1.713   9.793
 1695SOL    HW1 8879   0.265   1.790   9.847
 1695SOL    HW2 8880   0.275   1.713   9.703
 1696SOL     OW 8881   0.230   1.434   9.848
 1696SOL    HW1 8882   0.204   1.530   9.848
 1696SOL    HW2 8883   0.159   1.380   9.893
 1697SOL     OW 8884   0.606   0.964   9.433
 1697SOL    HW1 8885   0.613   1.048   9.379
 1697SOL    HW2 8886   0.652   0.977   9.521
 1698SOL     OW 8887   1.842   1.767   9.669
 1698SOL    HW1 8888   1.896   1.738   9.749
 1698SOL    HW2 8889   1.872   1.857   9.640
 1699SOL     OW 8890   0.027   1.596   9.427
 1699SOL    HW1 8891   0.008   1.500   9.448
 1699SOL    HW2 8892  -0.006   1.654   9.502
 1700SOL     OW 8893   1.689   0.922   9.922
 1700SOL    HW1 8894   1.784   0.893   9.930
 1700SOL    HW2 8895   1.681   0.987   9.847
 1701SOL     OW 8896   1.641   1.108   9.742
 1701SOL    HW1 8897   1.727   1.110   9.690
 1701SOL    HW2 8898   1.655   1.155   9.830
 1702SOL     OW 8899   0.613   1.365  10.036
 1702SOL    HW1 8900   0.564   1.278  10.045
 1702SOL    HW2 8901   0.590   1.408   9.949
 1703SOL     OW 8902   0.809   0.004   9.812
 1703SOL    HW1 8903   0.849   0.095   9.803
 1703SOL    HW2 8904   0.709   0.012   9.818
 1704SOL     OW 8905   1.525   0.999   9.500
 1704SOL    HW1 8906   1.462   0.923   9.513
 1704SOL    HW2 8907   1.573   1.017   9.586
 1705SOL     OW 8908   1.576   1.662   9.617
 1705SOL    HW1 8909   1.665   1.708   9.620
 1705SOL    HW2 8910   1.555   1.638   9.522
 1706SOL     OW 8911   0.076   0.811  10.099
 1706SOL    HW1 8912   0.175   0.799  10.108
 1706SOL    HW2 8913   0.052   0.906  10.120
 1707SOL     OW 8914   0.865   0.348   9.505
 1707SOL    HW1 8915   0.924   0.411   9.456
 1707SOL    HW2 8916   0.884   0.254   9.476
 1708SOL     OW 8917   1.362   1.144   9.855
 1708SOL    HW1 8918   1.445   1.115   9.807
 1708SOL    HW2 8919   1.313   1.211   9.799
 1709SOL     OW 8920   1.008   1.456   9.787
 1709SOL    HW1 8921   0.962   1.528   9.735
 1709SOL    HW2 8922   1.004   1.476   9.885
 1710SOL     OW 8923   0.351   1.801  10.163
 1710SOL    HW1 8924   0.401   1.715  10.169
 1710SOL    HW2 8925   0.416   1.878  10.160
 1711SOL     OW 8926   0.321   0.943   9.552
 1711SOL    HW1 8927   0.403   0.982   9.510
 1711SOL    HW2 8928   0.294   0.861   9.503
 1712SOL     OW 8929   1.111   1.776   9.547
 1712SOL    HW1 8930   1.051   1.714   9.597
 1712SOL    HW2 8931   1.142   1.732   9.462
 1713SOL     OW 8932   1.632   1.377   9.391
 1713SOL    HW1 8933   1.600   1.471   9.381
 1713SOL    HW2 8934   1.556   1.314   9.379
 1714SOL     OW 8935   0.464   1.743   9.633
 1714SOL    HW1 8936   0.497   1.782   9.719
 1714SOL    HW2 8937   0.540   1.736   9.568
 1715SOL     OW 8938   1.400   0.107   9.736
 1715SOL    HW1 8939   1.376   0.070   9.646
 1715SOL    HW2 8940   1.499   0.123   9.740
 1716SOL     OW 8941   0.614   0.122   9.427
 1716SOL    HW1 8942   0.712   0.100   9.434
 1716SOL    HW2 8943   0.583   0.105   9.334
 1717SOL     OW 8944   1.434   1.188   9.351
 1717SOL    HW1 8945   1.466   1.112   9.408
 1717SOL    HW2 8946   1.342   1.215   9.381
 1718SOL     OW 8947   0.297   0.035   9.481
 1718SOL    HW1 8948   0.346   0.119   9.460
 1718SOL    HW2 8949   0.359  -0.030   9.526
 1719SOL     OW 8950   0.459   1.152  10.051
 1719SOL    HW1 8951   0.388   1.125  10.116
 1719SOL    HW2 8952   0.433   1.124   9.958
 1720SOL     OW 8953   1.271   1.797   9.901
 1720SOL    HW1 8954   1.315   1.861   9.837
 1720SOL    HW2 8955   1.221   1.849   9.971
 1721SOL     OW 8956   1.032   0.549   9.326
 1721SOL    HW1 8957   0.991   0.631   9.287
 1721SOL    HW2 8958   1.096   0.575   9.399
 1722SOL     OW 8959   1.857   0.833   9.687
 1722SOL    HW1 8960   1.899   0.769   9.751
 1722SOL    HW2 8961   1.819   0.782   9.609
 1723SOL     OW 8962   0.488   1.385   9.484
 1723SOL    HW1 8963   0.401   1.370   9.531
 1723SOL    HW2 8964   0.471   1.411   9.389
 1724SOL     OW 8965   1.390   0.575   9.388
 1724SOL    HW1 8966   1.336   0.554   9.469
 1724SOL    HW2 8967   1.481   0.534   9.397
 1725SOL     OW 8968   0.527   0.256   9.638
 1725SOL    HW1 8969   0.554   0.197   9.563
 1725SOL    HW2 8970   0.527   0.351   9.607
 1726SOL     OW 8971   0.705   1.050   9.678
 1726SOL    HW1 8972   0.691   1.057   9.777
 1726SOL    HW2 8973   0.789   0.999   9.660
 1727SOL     OW 8974   0.367   1.100   9.811
 1727SOL    HW1 8975   0.360   1.183   9.755
 1727SOL    HW2 8976   0.371   1.020   9.751
 1728SOL     OW 8977   1.252   1.348   9.698
 1728SOL    HW1 8978   1.302   1.425   9.738
 1728SOL    HW2 8979   1.157   1.350   9.730
 1729SOL     OW 8980   1.582   0.639   9.782
 1729SOL    HW1 8981   1.551   0.700   9.855
 1729SOL    HW2 8982   1.632   0.691   9.713
 1730SOL     OW 8983   1.209   0.525   9.585
 1730SOL    HW1 8984   1.222   0.441   9.639
 1730SOL    HW2 8985   1.180   0.599   9.645
 1731SOL     OW 8986   1.622   0.367   9.684
 1731SOL    HW1 8987   1.624   0.291   9.748
 1731SOL    HW2 8988   1.574   0.444   9.724
 1732SOL     OW 8989   1.540   0.274   9.435
 1732SOL    HW1 8990   1.479   0.199   9.458
 1732SOL    HW2 8991   1.562   0.326   9.518
 1733SOL     OW 8992   1.303   0.838   9.352
 1733SOL    HW1 8993   1.337   0.745   9.367
 1733SOL    HW2 8994   1.321   0.865   9.257
 1734SOL     OW 8995   0.008   1.326   9.510
 1734SOL    HW1 8996  -0.085   1.347   9.479
 1734SOL    HW2 8997   0.018   1.227   9.523
 1735SOL     OW 8998   0.473   0.500   9.501
 1735SOL    HW1 8999   0.534   0.580   9.505
 1735SOL    HW2 9000   0.378   0.531   9.508
 1736SOL     OW 9001   1.302   0.855   9.619
 1736SOL    HW1 9002   1.216   0.824   9.661
 1736SOL    HW2 9003   1.298   0.841   9.520
 1737SOL     OW 9004   1.726   0.135   9.833
 1737SOL    HW1 9005   1.799   0.118   9.766
 1737SOL    HW2 9006   1.695   0.048   9.871
 1738SOL     OW 9007   1.388   1.573   9.787
 1738SOL    HW1 9008   1.455   1.585   9.713
 1738SOL    HW2 9009   1.348   1.662   9.810
 1739SOL     OW 9010   0.672   1.616   9.464
 1739SOL    HW1 9011   0.681   1.626   9.365
 1739SOL    HW2 9012   0.632   1.527   9.485
 1740SOL     OW 9013   1.841   0.175  10.273
 1740SOL    HW1 9014   1.880   0.090  10.237
 1740SOL    HW2 9015   1.743   0.177  10.254
 1741SOL     OW 9016   1.194   1.612   9.341
 1741SOL    HW1 9017   1.200   1.519   9.378
 1741SOL    HW2 9018   1.135   1.612   9.261
 1742SOL     OW 9019   1.504   1.607   9.354
 1742SOL    HW1 9020   1.412   1.644   9.361
 1742SOL    HW2 9021   1.542   1.627   9.264
 1743SOL     OW 9022   0.590   1.487   9.801
 1743SOL    HW1 9023   0.632   1.429   9.731
 1743SOL    HW2 9024   0.546   1.566   9.757
 1744SOL     OW 9025   0.255   1.348   9.600
 1744SOL    HW1 9026   0.159   1.349   9.573
 1744SOL    HW2 9027   0.267   1.401   9.684
 1745SOL     OW 9028   0.075   0.345   9.343
 1745SOL    HW1 9029  -0.017   0.317   9.314
 1745SOL    HW2 9030   0.106   0.422   9.287
 1746SOL     OW 9031   1.183   1.335   9.429
 1746SOL    HW1 9032   1.084   1.324   9.431
 1746SOL    HW2 9033   1.217   1.350   9.522
 1747SOL     OW 9034   0.594   0.745   9.962
 1747SOL    HW1 9035   0.644   0.830   9.943
 1747SOL    HW2 9036   0.506   0.747   9.914
 1748SOL     OW 9037   0.859   1.374   9.326
 1748SOL    HW1 9038   0.813   1.389   9.414
 1748SOL    HW2 9039   0.903   1.459   9.296
 1749SOL     OW 9040   1.083   0.984   9.397
 1749SOL    HW1 9041   1.060   1.037   9.315
 1749SOL    HW2 9042   1.164   0.928   9.378
 1750SOL     OW 9043   0.079   1.240   9.963
 1750SOL    HW1 9044   0.078   1.193  10.051
 1750SOL    HW2 9045   0.161   1.212   9.912
 1751SOL     OW 9046   0.770   1.330   9.611
 1751SOL    HW1 9047   0.724   1.243   9.628
 1751SOL    HW2 9048   0.861   1.327   9.652
 1752SOL     OW 9049   1.352   0.052   9.478
 1752SOL    HW1 9050   1.387   0.011   9.394
 1752SOL    HW2 9051   1.262   0.014   9.498
 1753SOL     OW 9052   0.039   1.077   9.610
 1753SOL    HW1 9053   0.138   1.066   9.601
 1753SOL    HW2 9054  -0.001   0.991   9.642
 1754SOL     OW 9055   0.875   1.646   9.647
 1754SOL    HW1 9056   0.798   1.611   9.593
 1754SOL    HW2 9057   0.843   1.717   9.709
 1755SOL     OW 9058   0.230   2.490   0.113
 1755SOL    HW1 9059   0.137   2.488   0.150
 1755SOL    HW2 9060   0.231   2.451   0.021
 1756SOL     OW 9061   0.225   2.137   0.996
 1756SOL    HW1 9062   0.260   2.120   1.088
 1756SOL    HW2 9063   0.137   2.092   0.984
 1757SOL     OW 9064   0.569   3.137   1.165
 1757SOL    HW1 9065   0.476   3.130   1.128
 1757SOL    HW2 9066   0.580   3.226   1.209
 1758SOL     OW 9067   1.135   2.565   0.717
 1758SOL    HW1 9068   1.192   2.643   0.692
 1758SOL    HW2 9069   1.075   2.591   0.793
 1759SOL     OW 9070   1.755   2.469   0.231
 1759SOL    HW1 9071   1.743   2.456   0.132
 1759SOL    HW2 9072   1.725   2.388   0.280
 1760SOL     OW 9073   0.768   3.006   1.023
 1760SOL    HW1 9074   0.690   3.023   1.083
 1760SOL    HW2 9075   0.802   3.093   0.987
 1761SOL     OW 9076   0.850   2.660   1.823
 1761SOL    HW1 9077   0.846   2.736   1.888
 1761SOL    HW2 9078   0.872   2.696   1.732
 1762SOL     OW 9079   0.686   3.023   1.803
 1762SOL    HW1 9080   0.746   3.102   1.817
 1762SOL    HW2 9081   0.600   3.054   1.762
 1763SOL     OW 9082   0.335   3.297   1.061
 1763SOL    HW1 9083   0.257   3.266   1.008
 1763SOL    HW2 9084   0.393   3.355   1.004
 1764SOL     OW 9085   1.460   3.367   1.339
 1764SOL    HW1 9086   1.484   3.461   1.365
 1764SOL    HW2 9087   1.444   3.313   1.421
 1765SOL     OW 9088   0.438   2.254   1.499
 1765SOL    HW1 9089   0.520   2.198   1.508
 1765SOL    HW2 9090   0.357   2.196   1.503
 1766SOL     OW 9091   1.603   2.309   0.737
 1766SOL    HW1 9092   1.529   2.355   0.687
 1766SOL    HW2 9093   1.654   2.377   0.790
 1767SOL     OW 9094   0.231   3.575   0.483
 1767SOL    HW1 9095   0.265   3.652   0.537
 1767SOL    HW2 9096   0.275   3.575   0.393
 1768SOL     OW 9097   1.127   3.203   1.690
 1768SOL    HW1 9098   1.174   3.203   1.778
 1768SOL    HW2 9099   1.079   3.116   1.679
 1769SOL     OW 9100   0.230   3.296   0.538
 1769SOL    HW1 9101   0.204   3.392   0.538
 1769SOL    HW2 9102   0.159   3.242   0.583
 1770SOL     OW 9103   0.240   2.953   0.886
 1770SOL    HW1 9104   0.254   2.869   0.938
 1770SOL    HW2 9105   0.185   3.017   0.941
 1771SOL     OW 9106   0.620   3.648   1.439
 1771SOL    HW1 9107   0.528   3.631   1.474
 1771SOL    HW2 9108   0.648   3.740   1.465
 1772SOL     OW 9109   0.606   2.826   0.123
 1772SOL    HW1 9110   0.613   2.910   0.069
 1772SOL    HW2 9111   0.652   2.839   0.211
 1773SOL     OW 9112   1.594   1.976   1.480
 1773SOL    HW1 9113   1.576   2.043   1.408
 1773SOL    HW2 9114   1.591   2.022   1.569
 1774SOL     OW 9115   0.122   2.505   0.563
 1774SOL    HW1 9116   0.077   2.417   0.580
 1774SOL    HW2 9117   0.121   2.559   0.647
 1775SOL     OW 9118   0.027   3.458   0.117
 1775SOL    HW1 9119   0.008   3.362   0.138
 1775SOL    HW2 9120  -0.006   3.516   0.192
 1776SOL     OW 9121   1.689   2.784   0.612
 1776SOL    HW1 9122   1.784   2.755   0.620
 1776SOL    HW2 9123   1.681   2.849   0.537
 1777SOL     OW 9124   1.641   2.970   0.432
 1777SOL    HW1 9125   1.727   2.972   0.380
 1777SOL    HW2 9126   1.655   3.017   0.520
 1778SOL     OW 9127   0.113   2.599   1.597
 1778SOL    HW1 9128   0.201   2.586   1.642
 1778SOL    HW2 9129   0.100   2.696   1.575
 1779SOL     OW 9130   0.613   3.227   0.726
 1779SOL    HW1 9131   0.564   3.140   0.735
 1779SOL    HW2 9132   0.590   3.270   0.639
 1780SOL     OW 9133   1.293   3.090   1.423
 1780SOL    HW1 9134   1.330   3.017   1.365
 1780SOL    HW2 9135   1.345   3.095   1.508
 1781SOL     OW 9136   0.809   1.866   0.502
 1781SOL    HW1 9137   0.849   1.957   0.493
 1781SOL    HW2 9138   0.709   1.874   0.508
 1782SOL     OW 9139   0.197   2.838   1.264
 1782SOL    HW1 9140   0.286   2.793   1.250
 1782SOL    HW2 9141   0.124   2.773   1.245
 1783SOL     OW 9142   1.525   2.861   0.190
 1783SOL    HW1 9143   1.462   2.785   0.203
 1783SOL    HW2 9144   1.573   2.879   0.276
 1784SOL     OW 9145   1.187   3.654   1.616
 1784SOL    HW1 9146   1.211   3.714   1.540
 1784SOL    HW2 9147   1.194   3.559   1.586
 1785SOL     OW 9148   0.317   2.113   1.801
 1785SOL    HW1 9149   0.388   2.184   1.807
 1785SOL    HW2 9150   0.229   2.152   1.829
 1786SOL     OW 9151   1.466   3.279   0.953
 1786SOL    HW1 9152   1.407   3.285   1.033
 1786SOL    HW2 9153   1.451   3.191   0.907
 1787SOL     OW 9154   0.598   2.591   0.270
 1787SOL    HW1 9155   0.622   2.660   0.202
 1787SOL    HW2 9156   0.520   2.624   0.324
 1788SOL     OW 9157   1.394   2.331   1.674
 1788SOL    HW1 9158   1.374   2.374   1.762
 1788SOL    HW2 9159   1.472   2.269   1.683
 1789SOL     OW 9160   0.973   2.752   1.572
 1789SOL    HW1 9161   1.019   2.668   1.543
 1789SOL    HW2 9162   0.917   2.786   1.497
 1790SOL     OW 9163   1.041   2.563   0.429
 1790SOL    HW1 9164   1.067   2.559   0.525
 1790SOL    HW2 9165   0.956   2.512   0.415
 1791SOL     OW 9166   0.076   2.673   0.789
 1791SOL    HW1 9167   0.175   2.661   0.798
 1791SOL    HW2 9168   0.052   2.768   0.810
 1792SOL     OW 9169   0.865   2.210   0.195
 1792SOL    HW1 9170   0.924   2.273   0.146
 1792SOL    HW2 9171   0.884   2.116   0.166
 1793SOL     OW 9172   1.719   2.447   1.831
 1793SOL    HW1 9173   1.693   2.536   1.795
 1793SOL    HW2 9174   1.717   2.379   1.758
 1794SOL     OW 9175   1.362   3.006   0.545
 1794SOL    HW1 9176   1.445   2.977   0.497
 1794SOL    HW2 9177   1.313   3.073   0.489
 1795SOL     OW 9178   0.550   2.058   0.885
 1795SOL    HW1 9179   0.545   2.053   0.985
 1795SOL    HW2 9180   0.552   2.154   0.856
 1796SOL     OW 9181   1.008   3.318   0.477
 1796SOL    HW1 9182   0.962   3.390   0.425
 1796SOL    HW2 9183   1.004   3.338   0.575
 1797SOL     OW 9184   0.351   3.663   0.853
 1797SOL    HW1 9185   0.401   3.577   0.859
 1797SOL    HW2 9186   0.416   3.740   0.850
 1798SOL     OW 9187   1.795   2.928   0.873
 1798SOL    HW1 9188   1.733   2.913   0.797
 1798SOL    HW2 9189   1.743   2.939   0.958
 1799SOL     OW 9190   1.227   3.412   1.506
 1799SOL    HW1 9191   1.233   3.335   1.570
 1799SOL    HW2 9192   1.175   3.386   1.426
 1800SOL     OW 9193   0.321   2.805   0.242
 1800SOL    HW1 9194   0.403   2.844   0.200
 1800SOL    HW2 9195   0.294   2.723   0.193
 1801SOL     OW 9196   1.458   2.597   0.728
 1801SOL    HW1 9197   1.453   2.532   0.803
 1801SOL    HW2 9198   1.538   2.656   0.741
 1802SOL     OW 9199   0.461   3.128   1.727
 1802SOL    HW1 9200   0.411   3.129   1.641
 1802SOL    HW2 9201   0.398   3.110   1.803
 1803SOL     OW 9202   1.111   3.638   0.237
 1803SOL    HW1 9203   1.051   3.576   0.287
 1803SOL    HW2 9204   1.142   3.594   0.152
 1804SOL     OW 9205   0.202   2.147   1.498
 1804SOL    HW1 9206   0.122   2.207   1.485
 1804SOL    HW2 9207   0.192   2.098   1.584
 1805SOL     OW 9208   0.464   3.605   0.323
 1805SOL    HW1 9209   0.497   3.644   0.409
 1805SOL    HW2 9210   0.540   3.598   0.258
 1806SOL     OW 9211   1.400   1.969   0.426
 1806SOL    HW1 9212   1.376   1.932   0.336
 1806SOL    HW2 9213   1.499   1.985   0.430
 1807SOL     OW 9214   0.249   3.647   1.241
 1807SOL    HW1 9215   0.306   3.582   1.291
 1807SOL    HW2 9216   0.233   3.614   1.148
 1808SOL     OW 9217   0.940   3.560   0.904
 1808SOL    HW1 9218   1.020   3.503   0.925
 1808SOL    HW2 9219   0.891   3.520   0.827
 1809SOL     OW 9220   1.547   2.084   1.729
 1809SOL    HW1 9221   1.542   2.121   1.821
 1809SOL    HW2 9222   1.475   2.015   1.717
 1810SOL     OW 9223   0.614   1.984   0.117
 1810SOL    HW1 9224   0.712   1.962   0.124
 1810SOL    HW2 9225   0.583   1.967   0.024
 1811SOL     OW 9226   0.781   2.126   1.749
 1811SOL    HW1 9227   0.848   2.065   1.792
 1811SOL    HW2 9228   0.708   2.145   1.814
 1812SOL     OW 9229   0.888   3.376   1.195
 1812SOL    HW1 9230   0.865   3.351   1.101
 1812SOL    HW2 9231   0.949   3.307   1.234
 1813SOL     OW 9232   1.351   2.452   1.433
 1813SOL    HW1 9233   1.379   2.409   1.518
 1813SOL    HW2 9234   1.376   2.548   1.434
 1814SOL     OW 9235   0.803   3.264   0.924
 1814SOL    HW1 9236   0.893   3.278   0.882
 1814SOL    HW2 9237   0.732   3.266   0.853
 1815SOL     OW 9238   0.922   2.365   0.899
 1815SOL    HW1 9239   0.897   2.356   0.803
 1815SOL    HW2 9240   0.970   2.283   0.930
 1816SOL     OW 9241   0.539   1.926   0.512
 1816SOL    HW1 9242   0.458   1.927   0.570
 1816SOL    HW2 9243   0.542   2.009   0.457
 1817SOL     OW 9244   1.227   3.432   0.793
 1817SOL    HW1 9245   1.248   3.506   0.728
 1817SOL    HW2 9246   1.295   3.432   0.866
 1818SOL     OW 9247   0.459   3.014   0.741
 1818SOL    HW1 9248   0.388   2.987   0.806
 1818SOL    HW2 9249   0.433   2.986   0.648
 1819SOL     OW 9250   1.271   3.659   0.591
 1819SOL    HW1 9251   1.315   3.723   0.527
 1819SOL    HW2 9252   1.221   3.711   0.661
 1820SOL     OW 9253   1.032   2.411   0.016
 1820SOL    HW1 9254   0.991   2.493  -0.023
 1820SOL    HW2 9255   1.096   2.437   0.089
 1821SOL     OW 9256   0.078   2.418   1.386
 1821SOL    HW1 9257   0.170   2.417   1.345
 1821SOL    HW2 9258   0.072   2.492   1.453
 1822SOL     OW 9259   0.561   2.084   1.147
 1822SOL    HW1 9260   0.599   2.000   1.184
 1822SOL    HW2 9261   0.473   2.103   1.191
 1823SOL     OW 9262   0.866   2.316   0.642
 1823SOL    HW1 9263   0.834   2.388   0.580
 1823SOL    HW2 9264   0.890   2.235   0.589
 1824SOL     OW 9265   1.429   3.035   0.867
 1824SOL    HW1 9266   1.374   2.951   0.860
 1824SOL    HW2 9267   1.455   3.064   0.775
 1825SOL     OW 9268   1.466   2.452   0.992
 1825SOL    HW1 9269   1.436   2.357   0.999
 1825SOL    HW2 9270   1.539   2.468   1.058
 1826SOL     OW 9271   1.857   2.695   0.377
 1826SOL    HW1 9272   1.899   2.631   0.441
 1826SOL    HW2 9273   1.819   2.644   0.299
 1827SOL     OW 9274   0.488   3.247   0.174
 1827SOL    HW1 9275   0.401   3.232   0.221
 1827SOL    HW2 9276   0.471   3.273   0.079
 1828SOL     OW 9277   1.664   3.142   0.657
 1828SOL    HW1 9278   1.763   3.150   0.671
 1828SOL    HW2 9279   1.619   3.226   0.688
 1829SOL     OW 9280   1.390   2.437   0.078
 1829SOL    HW1 9281   1.336   2.416   0.159
 1829SOL    HW2 9282   1.481   2.396   0.087
 1830SOL     OW 9283   0.527   2.118   0.328
 1830SOL    HW1 9284   0.554   2.059   0.253
 1830SOL    HW2 9285   0.527   2.213   0.297
 1831SOL     OW 9286   1.754   3.085   1.588
 1831SOL    HW1 9287   1.845   3.046   1.575
 1831SOL    HW2 9288   1.762   3.181   1.612
 1832SOL     OW 9289   1.064   3.209   1.340
 1832SOL    HW1 9290   0.984   3.186   1.395
 1832SOL    HW2 9291   1.147   3.183   1.389
 1833SOL     OW 9292   1.111   3.057   1.100
 1833SOL    HW1 9293   1.071   3.101   1.181
 1833SOL    HW2 9294   1.070   3.094   1.017
 1834SOL     OW 9295   1.638   2.961   1.079
 1834SOL    HW1 9296   1.643   3.042   1.138
 1834SOL    HW2 9297   1.552   2.963   1.028
 1835SOL     OW 9298   0.915   1.951   1.402
 1835SOL    HW1 9299   0.940   1.931   1.307
 1835SOL    HW2 9300   0.987   2.007   1.444
 1836SOL     OW 9301   0.980   2.978   1.719
 1836SOL    HW1 9302   0.881   2.984   1.729
 1836SOL    HW2 9303   1.003   2.898   1.663
 1837SOL     OW 9304   0.705   2.912   0.368
 1837SOL    HW1 9305   0.691   2.919   0.467
 1837SOL    HW2 9306   0.789   2.861   0.350
 1838SOL     OW 9307   0.410   2.675   1.251
 1838SOL    HW1 9308   0.496   2.687   1.301
 1838SOL    HW2 9309   0.368   2.588   1.278
 1839SOL     OW 9310   0.064   3.426   1.331
 1839SOL    HW1 9311   0.018   3.508   1.297
 1839SOL    HW2 9312   0.162   3.445   1.340
 1840SOL     OW 9313   0.367   2.962   0.501
 1840SOL    HW1 9314   0.360   3.045   0.445
 1840SOL    HW2 9315   0.371   2.882   0.441
 1841SOL     OW 9316   0.566   2.399   0.865
 1841SOL    HW1 9317   0.578   2.465   0.791
 1841SOL    HW2 9318   0.612   2.433   0.948
 1842SOL     OW 9319   1.252   3.210   0.388
 1842SOL    HW1 9320   1.302   3.287   0.428
 1842SOL    HW2 9321   1.157   3.212   0.420
 1843SOL     OW 9322   1.272   3.307   1.142
 1843SOL    HW1 9323   1.319   3.320   1.229
 1843SOL    HW2 9324   1.206   3.233   1.151
 1844SOL     OW 9325   1.582   2.501   0.472
 1844SOL    HW1 9326   1.551   2.562   0.545
 1844SOL    HW2 9327   1.632   2.553   0.403
 1845SOL     OW 9328   0.354   3.372   1.329
 1845SOL    HW1 9329   0.333   3.328   1.242
 1845SOL    HW2 9330   0.451   3.398   1.332
 1846SOL     OW 9331   0.402   2.613   1.598
 1846SOL    HW1 9332   0.470   2.668   1.551
 1846SOL    HW2 9333   0.442   2.525   1.625
 1847SOL     OW 9334   1.587   2.641   1.670
 1847SOL    HW1 9335   1.495   2.679   1.665
 1847SOL    HW2 9336   1.647   2.688   1.605
 1848SOL     OW 9337   1.013   1.967   1.770
 1848SOL    HW1 9338   1.019   2.052   1.718
 1848SOL    HW2 9339   1.045   1.891   1.713
 1849SOL     OW 9340   0.504   1.912   1.740
 1849SOL    HW1 9341   0.462   1.855   1.670
 1849SOL    HW2 9342   0.438   1.981   1.772
 1850SOL     OW 9343   1.360   2.724   1.045
 1850SOL    HW1 9344   1.285   2.724   0.979
 1850SOL    HW2 9345   1.397   2.632   1.054
 1851SOL     OW 9346   1.209   2.387   0.275
 1851SOL    HW1 9347   1.222   2.303   0.329
 1851SOL    HW2 9348   1.180   2.461   0.335
 1852SOL     OW 9349   0.307   2.075   1.231
 1852SOL    HW1 9350   0.284   2.112   1.321
 1852SOL    HW2 9351   0.277   1.980   1.225
 1853SOL     OW 9352   0.037   3.172   1.282
 1853SOL    HW1 9353   0.090   3.123   1.350
 1853SOL    HW2 9354   0.059   3.270   1.287
 1854SOL     OW 9355   0.732   2.496   1.064
 1854SOL    HW1 9356   0.791   2.470   0.988
 1854SOL    HW2 9357   0.704   2.592   1.053
 1855SOL     OW 9358   1.728   2.797   1.854
 1855SOL    HW1 9359   1.682   2.790   1.765
 1855SOL    HW2 9360   1.666   2.841   1.920
 1856SOL     OW 9361   1.622   2.229   0.374
 1856SOL    HW1 9362   1.624   2.153   0.438
 1856SOL    HW2 9363   1.574   2.306   0.414
 1857SOL     OW 9364   1.023   2.628   0.966
 1857SOL    HW1 9365   1.038   2.649   1.062
 1857SOL    HW2 9366   0.993   2.533   0.957
 1858SOL     OW 9367   0.980   3.435   1.700
 1858SOL    HW1 9368   0.960   3.479   1.612
 1858SOL    HW2 9369   1.019   3.344   1.684
 1859SOL     OW 9370   0.350   2.760   1.804
 1859SOL    HW1 9371   0.426   2.804   1.852
 1859SOL    HW2 9372   0.385   2.713   1.722
 1860SOL     OW 9373   1.540   2.136   0.125
 1860SOL    HW1 9374   1.479   2.061   0.148
 1860SOL    HW2 9375   1.562   2.188   0.208
 1861SOL     OW 9376   1.303   2.700   0.042
 1861SOL    HW1 9377   1.337   2.607   0.057
 1861SOL    HW2 9378   1.321   2.727  -0.053
 1862SOL     OW 9379   1.068   3.195   0.849
 1862SOL    HW1 9380   1.075   3.111   0.794
 1862SOL    HW2 9381   1.130   3.264   0.813
 1863SOL     OW 9382   0.339   2.371   1.006
 1863SOL    HW1 9383   0.287   2.288   0.989
 1863SOL    HW2 9384   0.416   2.376   0.942
 1864SOL     OW 9385   1.138   2.242   1.678
 1864SOL    HW1 9386   1.093   2.305   1.742
 1864SOL    HW2 9387   1.231   2.273   1.661
 1865SOL     OW 9388   0.008   3.188   0.200
 1865SOL    HW1 9389  -0.085   3.209   0.169
 1865SOL    HW2 9390   0.018   3.089   0.213
 1866SOL     OW 9391   0.088   3.663   0.927
 1866SOL    HW1 9392   0.046   3.577   0.900
 1866SOL    HW2 9393   0.182   3.666   0.893
 1867SOL     OW 9394   0.504   3.430   0.910
 1867SOL    HW1 9395   0.570   3.504   0.919
 1867SOL    HW2 9396   0.548   3.351   0.868
 1868SOL     OW 9397   0.040   2.406   1.114
 1868SOL    HW1 9398   0.125   2.373   1.073
 1868SOL    HW2 9399   0.053   2.421   1.212
 1869SOL     OW 9400   0.189   2.382   1.722
 1869SOL    HW1 9401   0.248   2.342   1.652
 1869SOL    HW2 9402   0.131   2.453   1.681
 1870SOL     OW 9403   1.369   2.812   1.660
 1870SOL    HW1 9404   1.408   2.901   1.680
 1870SOL    HW2 9405   1.379   2.792   1.563
 1871SOL     OW 9406   0.815   2.434   0.325
 1871SOL    HW1 9407   0.822   2.345   0.279
 1871SOL    HW2 9408   0.721   2.468   0.317
 1872SOL     OW 9409   1.657   2.466   1.206
 1872SOL    HW1 9410   1.619   2.397   1.268
 1872SOL    HW2 9411   1.739   2.430   1.162
 1873SOL     OW 9412   0.252   3.426   1.744
 1873SOL    HW1 9413   0.222   3.483   1.820
 1873SOL    HW2 9414   0.245   3.329   1.770
 1874SOL     OW 9415   0.930   3.540   1.465
 1874SOL    HW1 9416   0.906   3.522   1.370
 1874SOL    HW2 9417   0.960   3.634   1.475
 1875SOL     OW 9418   0.473   2.362   0.191
 1875SOL    HW1 9419   0.534   2.442   0.195
 1875SOL    HW2 9420   0.378   2.393   0.198
 1876SOL     OW 9421   0.159   2.999   1.466
 1876SOL    HW1 9422   0.181   2.938   1.542
 1876SOL    HW2 9423   0.169   2.950   1.380
 1877SOL     OW 9424   1.347   2.921   1.234
 1877SOL    HW1 9425   1.371   2.858   1.160
 1877SOL    HW2 9426   1.257   2.961   1.216
 1878SOL     OW 9427   1.302   2.717   0.309
 1878SOL    HW1 9428   1.216   2.686   0.351
 1878SOL    HW2 9429   1.298   2.703   0.210
 1879SOL     OW 9430   1.252   3.593   1.128
 1879SOL    HW1 9431   1.336   3.598   1.074
 1879SOL    HW2 9432   1.229   3.497   1.146
 1880SOL     OW 9433   0.083   3.120   1.022
 1880SOL    HW1 9434   0.078   3.119   1.122
 1880SOL    HW2 9435   0.000   3.079   0.984
 1881SOL     OW 9436   0.688   3.524   1.716
 1881SOL    HW1 9437   0.632   3.605   1.725
 1881SOL    HW2 9438   0.740   3.528   1.630
 1882SOL     OW 9439   0.903   1.948   0.133
 1882SOL    HW1 9440   0.954   1.949   0.047
 1882SOL    HW2 9441   0.959   1.906   0.204
 1883SOL     OW 9442   1.726   1.997   0.523
 1883SOL    HW1 9443   1.799   1.980   0.456
 1883SOL    HW2 9444   1.695   1.910   0.561
 1884SOL     OW 9445   1.388   3.435   0.477
 1884SOL    HW1 9446   1.455   3.447   0.403
 1884SOL    HW2 9447   1.348   3.524   0.500
 1885SOL     OW 9448   1.280   2.789   0.672
 1885SOL    HW1 9449   1.340   2.708   0.674
 1885SOL    HW2 9450   1.320   2.858   0.612
 1886SOL     OW 9451   0.830   3.135   1.422
 1886SOL    HW1 9452   0.825   3.168   1.517
 1886SOL    HW2 9453   0.744   3.154   1.376
 1887SOL     OW 9454   0.672   3.478   0.154
 1887SOL    HW1 9455   0.681   3.488   0.055
 1887SOL    HW2 9456   0.632   3.389   0.175
 1888SOL     OW 9457   1.841   2.037   0.963
 1888SOL    HW1 9458   1.880   1.952   0.927
 1888SOL    HW2 9459   1.743   2.039   0.944
 1889SOL     OW 9460   0.263   2.188   0.720
 1889SOL    HW1 9461   0.184   2.239   0.686
 1889SOL    HW2 9462   0.254   2.173   0.818
 1890SOL     OW 9463   1.194   3.474   0.031
 1890SOL    HW1 9464   1.200   3.381   0.068
 1890SOL    HW2 9465   1.135   3.474  -0.049
 1891SOL     OW 9466   0.822   2.864   1.372
 1891SOL    HW1 9467   0.862   2.863   1.280
 1891SOL    HW2 9468   0.832   2.956   1.412
 1892SOL     OW 9469   1.504   3.469   0.044
 1892SOL    HW1 9470   1.412   3.506   0.051
 1892SOL    HW2 9471   1.542   3.489  -0.046
 1893SOL     OW 9472   0.372   3.150   1.490
 1893SOL    HW1 9473   0.359   3.243   1.456
 1893SOL    HW2 9474   0.288   3.098   1.477
 1894SOL     OW 9475   1.614   3.154   1.289
 1894SOL    HW1 9476   1.674   3.157   1.369
 1894SOL    HW2 9477   1.539   3.218   1.302
 1895SOL     OW 9478   1.039   2.960   0.696
 1895SOL    HW1 9479   0.969   2.913   0.750
 1895SOL    HW2 9480   1.098   2.892   0.653
 1896SOL     OW 9481   0.590   3.349   0.491
 1896SOL    HW1 9482   0.632   3.291   0.421
 1896SOL    HW2 9483   0.546   3.428   0.447
 1897SOL     OW 9484   1.709   2.247   1.381
 1897SOL    HW1 9485   1.782   2.316   1.385
 1897SOL    HW2 9486   1.737   2.172   1.322
 1898SOL     OW 9487   0.255   3.210   0.290
 1898SOL    HW1 9488   0.159   3.211   0.263
 1898SOL    HW2 9489   0.267   3.263   0.374
 1899SOL     OW 9490   0.105   2.875   1.726
 1899SOL    HW1 9491   0.028   2.842   1.780
 1899SOL    HW2 9492   0.190   2.845   1.768
 1900SOL     OW 9493   0.672   2.065   1.489
 1900SOL    HW1 9494   0.762   2.049   1.449
 1900SOL    HW2 9495   0.680   2.070   1.588
 1901SOL     OW 9496   0.075   2.207   0.033
 1901SOL    HW1 9497  -0.017   2.179   0.004
 1901SOL    HW2 9498   0.106   2.284  -0.023
 1902SOL     OW 9499   1.440   2.718   1.398
 1902SOL    HW1 9500   1.383   2.770   1.335
 1902SOL    HW2 9501   1.536   2.730   1.374
 1903SOL     OW 9502   1.183   3.197   0.119
 1903SOL    HW1 9503   1.084   3.186   0.121
 1903SOL    HW2 9504   1.217   3.212   0.212
 1904SOL     OW 9505   0.613   2.704   1.431
 1904SOL    HW1 9506   0.669   2.785   1.414
 1904SOL    HW2 9507   0.672   2.624   1.434
 1905SOL     OW 9508   1.493   3.629   0.959
 1905SOL    HW1 9509   1.526   3.693   0.890
 1905SOL    HW2 9510   1.559   3.623   1.034
 1906SOL     OW 9511   0.716   2.427   1.708
 1906SOL    HW1 9512   0.735   2.492   1.782
 1906SOL    HW2 9513   0.776   2.347   1.717
 1907SOL     OW 9514   1.450   3.082   1.633
 1907SOL    HW1 9515   1.441   3.072   1.732
 1907SOL    HW2 9516   1.546   3.075   1.607
 1908SOL     OW 9517   0.390   3.603   1.560
 1908SOL    HW1 9518   0.299   3.644   1.558
 1908SOL    HW2 9519   0.383   3.509   1.592
 1909SOL     OW 9520   1.674   2.745   1.254
 1909SOL    HW1 9521   1.647   2.656   1.217
 1909SOL    HW2 9522   1.675   2.813   1.181
 1910SOL     OW 9523   1.225   2.187   0.449
 1910SOL    HW1 9524   1.290   2.113   0.438
 1910SOL    HW2 9525   1.245   2.237   0.533
 1911SOL     OW 9526   1.777   2.204   1.642
 1911SOL    HW1 9527   1.760   2.235   1.548
 1911SOL    HW2 9528   1.693   2.167   1.680
 1912SOL     OW 9529   1.730   2.796   1.517
 1912SOL    HW1 9530   1.768   2.887   1.532
 1912SOL    HW2 9531   1.722   2.779   1.418
 1913SOL     OW 9532   0.859   3.236   0.016
 1913SOL    HW1 9533   0.813   3.251   0.104
 1913SOL    HW2 9534   0.903   3.321  -0.014
 1914SOL     OW 9535   0.661   3.652   0.953
 1914SOL    HW1 9536   0.615   3.740   0.940
 1914SOL    HW2 9537   0.760   3.664   0.946
 1915SOL     OW 9538   0.859   2.818   0.861
 1915SOL    HW1 9539   0.913   2.749   0.909
 1915SOL    HW2 9540   0.827   2.887   0.927
 1916SOL     OW 9541   0.221   3.176   1.844
 1916SOL    HW1 9542   0.156   3.103   1.823
 1916SOL    HW2 9543   0.225   3.190   1.942
 1917SOL     OW 9544   0.079   3.102   0.653
 1917SOL    HW1 9545   0.078   3.055   0.741
 1917SOL    HW2 9546   0.161   3.074   0.602
 1918SOL     OW 9547   0.672   3.253   1.624
 1918SOL    HW1 9548   0.594   3.203   1.662
 1918SOL    HW2 9549   0.669   3.348   1.655
 1919SOL     OW 9550   1.824   2.054   1.227
 1919SOL    HW1 9551   1.820   1.964   1.271
 1919SOL    HW2 9552   1.827   2.043   1.128
 1920SOL     OW 9553   0.428   2.286   0.520
 1920SOL    HW1 9554   0.458   2.214   0.458
 1920SOL    HW2 9555   0.389   2.246   0.603
 1921SOL     OW 9556   1.705   3.349   1.104
 1921SOL    HW1 9557   1.612   3.324   1.077
 1921SOL    HW2 9558   1.731   3.299   1.186
 1922SOL     OW 9559   0.317   2.409   1.280
 1922SOL    HW1 9560   0.355   2.350   1.352
 1922SOL    HW2 9561   0.357   2.383   1.192
 1923SOL     OW 9562   0.812   3.448   0.687
 1923SOL    HW1 9563   0.844   3.458   0.593
 1923SOL    HW2 9564   0.733   3.386   0.689
 1924SOL     OW 9565   1.424   2.076   1.112
 1924SOL    HW1 9566   1.476   2.011   1.167
 1924SOL    HW2 9567   1.375   2.139   1.173
 1925SOL     OW 9568   1.001   1.896   1.154
 1925SOL    HW1 9569   0.938   1.824   1.123
 1925SOL    HW2 9570   1.094   1.860   1.154
 1926SOL     OW 9571   0.770   3.192   0.301
 1926SOL    HW1 9572   0.724   3.105   0.318
 1926SOL    HW2 9573   0.861   3.189   0.342
 1927SOL     OW 9574   0.618   3.429   1.284
 1927SOL    HW1 9575   0.613   3.511   1.341
 1927SOL    HW2 9576   0.707   3.426   1.239
 1928SOL     OW 9577   1.352   1.914   0.168
 1928SOL    HW1 9578   1.387   1.873   0.084
 1928SOL    HW2 9579   1.262   1.876   0.188
 1929SOL     OW 9580   1.300   2.315   0.691
 1929SOL    HW1 9581   1.241   2.395   0.695
 1929SOL    HW2 9582   1.315   2.280   0.784
 1930SOL     OW 9583   1.593   2.083   0.882
 1930SOL    HW1 9584   1.509   2.082   0.936
 1930SOL    HW2 9585   1.595   2.166   0.826
 1931SOL     OW 9586   0.039   2.939   0.300
 1931SOL    HW1 9587   0.138   2.928   0.291
 1931SOL    HW2 9588  -0.001   2.853   0.332
 1932SOL     OW 9589   0.875   3.508   0.337
 1932SOL    HW1 9590   0.798   3.473   0.283
 1932SOL    HW2 9591   0.843   3.579   0.399
 1933SOL     OW 9592   0.230   2.490   1.975
 1933SOL    HW1 9593   0.137   2.488   2.012
 1933SOL    HW2 9594   0.231   2.451   1.883
 1934SOL     OW 9595   0.225   2.137   2.858
 1934SOL    HW1 9596   0.260   2.120   2.950
 1934SOL    HW2 9597   0.137   2.092   2.846
 1935SOL     OW 9598   0.019   2.230   2.509
 1935SOL    HW1 9599  -0.063   2.273   2.548
 1935SOL    HW2 9600  -0.009   2.157   2.446
 1936SOL     OW 9601   0.569   3.137   3.027
 1936SOL    HW1 9602   0.476   3.130   2.990
 1936SOL    HW2 9603   0.580   3.226   3.071
 1937SOL     OW 9604   1.555   3.373   2.565
 1937SOL    HW1 9605   1.498   3.357   2.646
 1937SOL    HW2 9606   1.496   3.383   2.485
 1938SOL     OW 9607   1.135   2.565   2.579
 1938SOL    HW1 9608   1.192   2.643   2.554
 1938SOL    HW2 9609   1.075   2.591   2.655
 1939SOL     OW 9610   1.755   2.469   2.093
 1939SOL    HW1 9611   1.743   2.456   1.994
 1939SOL    HW2 9612   1.725   2.388   2.142
 1940SOL     OW 9613   0.768   3.006   2.885
 1940SOL    HW1 9614   0.690   3.023   2.945
 1940SOL    HW2 9615   0.802   3.093   2.849
 1941SOL     OW 9616   0.850   2.660   3.685
 1941SOL    HW1 9617   0.846   2.736   3.750
 1941SOL    HW2 9618   0.872   2.696   3.594
 1942SOL     OW 9619   0.685   2.874   2.527
 1942SOL    HW1 9620   0.754   2.858   2.597
 1942SOL    HW2 9621   0.612   2.931   2.565
 1943SOL     OW 9622   0.686   3.023   3.665
 1943SOL    HW1 9623   0.746   3.102   3.679
 1943SOL    HW2 9624   0.600   3.054   3.624
 1944SOL     OW 9625   0.335   3.297   2.923
 1944SOL    HW1 9626   0.257   3.266   2.870
 1944SOL    HW2 9627   0.393   3.355   2.866
 1945SOL     OW 9628   1.603   2.309   2.599
 1945SOL    HW1 9629   1.529   2.355   2.549
 1945SOL    HW2 9630   1.654   2.377   2.652
 1946SOL     OW 9631   0.231   3.575   2.345
 1946SOL    HW1 9632   0.265   3.652   2.399
 1946SOL    HW2 9633   0.275   3.575   2.255
 1947SOL     OW 9634   1.127   3.203   3.552
 1947SOL    HW1 9635   1.174   3.203   3.640
 1947SOL    HW2 9636   1.079   3.116   3.541
 1948SOL     OW 9637   0.230   3.296   2.400
 1948SOL    HW1 9638   0.204   3.392   2.400
 1948SOL    HW2 9639   0.159   3.242   2.445
 1949SOL     OW 9640   0.240   2.953   2.748
 1949SOL    HW1 9641   0.254   2.869   2.800
 1949SOL    HW2 9642   0.185   3.017   2.803
 1950SOL     OW 9643   0.620   3.648   3.301
 1950SOL    HW1 9644   0.528   3.631   3.336
 1950SOL    HW2 9645   0.648   3.740   3.327
 1951SOL     OW 9646   0.606   2.826   1.985
 1951SOL    HW1 9647   0.613   2.910   1.931
 1951SOL    HW2 9648   0.652   2.839   2.073
 1952SOL     OW 9649   1.594   1.976   3.342
 1952SOL    HW1 9650   1.576   2.043   3.270
 1952SOL    HW2 9651   1.591   2.022   3.431
 1953SOL     OW 9652   0.122   2.505   2.425
 1953SOL    HW1 9653   0.077   2.417   2.442
 1953SOL    HW2 9654   0.121   2.559   2.509
 1954SOL     OW 9655   1.842   3.629   2.221
 1954SOL    HW1 9656   1.896   3.600   2.301
 1954SOL    HW2 9657   1.872   3.719   2.192
 1955SOL     OW 9658   0.027   3.458   1.979
 1955SOL    HW1 9659   0.008   3.362   2.000
 1955SOL    HW2 9660  -0.006   3.516   2.054
 1956SOL     OW 9661   1.689   2.784   2.474
 1956SOL    HW1 9662   1.784   2.755   2.482
 1956SOL    HW2 9663   1.681   2.849   2.399
 1957SOL     OW 9664   1.641   2.970   2.294
 1957SOL    HW1 9665   1.727   2.972   2.242
 1957SOL    HW2 9666   1.655   3.017   2.382
 1958SOL     OW 9667   0.613   3.227   2.588
 1958SOL    HW1 9668   0.564   3.140   2.597
 1958SOL    HW2 9669   0.590   3.270   2.501
 1959SOL     OW 9670   1.293   3.090   3.285
 1959SOL    HW1 9671   1.330   3.017   3.227
 1959SOL    HW2 9672   1.345   3.095   3.370
 1960SOL     OW 9673   0.809   1.866   2.364
 1960SOL    HW1 9674   0.849   1.957   2.355
 1960SOL    HW2 9675   0.709   1.874   2.370
 1961SOL     OW 9676   0.197   2.838   3.126
 1961SOL    HW1 9677   0.286   2.793   3.112
 1961SOL    HW2 9678   0.124   2.773   3.107
 1962SOL     OW 9679   1.525   2.861   2.052
 1962SOL    HW1 9680   1.462   2.785   2.065
 1962SOL    HW2 9681   1.573   2.879   2.138
 1963SOL     OW 9682   0.317   2.113   3.663
 1963SOL    HW1 9683   0.388   2.184   3.669
 1963SOL    HW2 9684   0.229   2.152   3.691
 1964SOL     OW 9685   1.466   3.279   2.815
 1964SOL    HW1 9686   1.407   3.285   2.895
 1964SOL    HW2 9687   1.451   3.191   2.769
 1965SOL     OW 9688   1.667   3.576   2.434
 1965SOL    HW1 9689   1.626   3.553   2.346
 1965SOL    HW2 9690   1.649   3.502   2.499
 1966SOL     OW 9691   0.598   2.591   2.132
 1966SOL    HW1 9692   0.622   2.660   2.064
 1966SOL    HW2 9693   0.520   2.624   2.186
 1967SOL     OW 9694   1.281   2.207   2.806
 1967SOL    HW1 9695   1.195   2.157   2.793
 1967SOL    HW2 9696   1.343   2.153   2.862
 1968SOL     OW 9697   1.576   3.524   2.169
 1968SOL    HW1 9698   1.665   3.570   2.172
 1968SOL    HW2 9699   1.555   3.500   2.074
 1969SOL     OW 9700   1.394   2.331   3.536
 1969SOL    HW1 9701   1.374   2.374   3.624
 1969SOL    HW2 9702   1.472   2.269   3.545
 1970SOL     OW 9703   0.973   2.752   3.434
 1970SOL    HW1 9704   1.019   2.668   3.405
 1970SOL    HW2 9705   0.917   2.786   3.359
 1971SOL     OW 9706   0.991   2.272   3.104
 1971SOL    HW1 9707   0.914   2.306   3.158
 1971SOL    HW2 9708   0.957   2.221   3.025
 1972SOL     OW 9709   0.076   2.673   2.651
 1972SOL    HW1 9710   0.175   2.661   2.660
 1972SOL    HW2 9711   0.052   2.768   2.672
 1973SOL     OW 9712   0.130   3.683   3.433
 1973SOL    HW1 9713   0.120   3.668   3.532
 1973SOL    HW2 9714   0.044   3.719   3.397
 1974SOL     OW 9715   0.865   2.210   2.057
 1974SOL    HW1 9716   0.924   2.273   2.008
 1974SOL    HW2 9717   0.884   2.116   2.028
 1975SOL     OW 9718   1.719   2.447   3.693
 1975SOL    HW1 9719   1.693   2.536   3.657
 1975SOL    HW2 9720   1.717   2.379   3.620
 1976SOL     OW 9721   1.362   3.006   2.407
 1976SOL    HW1 9722   1.445   2.977   2.359
 1976SOL    HW2 9723   1.313   3.073   2.351
 1977SOL     OW 9724   0.550   2.058   2.747
 1977SOL    HW1 9725   0.545   2.053   2.847
 1977SOL    HW2 9726   0.552   2.154   2.718
 1978SOL     OW 9727   0.351   3.663   2.715
 1978SOL    HW1 9728   0.401   3.577   2.721
 1978SOL    HW2 9729   0.416   3.740   2.712
 1979SOL     OW 9730   1.795   2.928   2.735
 1979SOL    HW1 9731   1.733   2.913   2.659
 1979SOL    HW2 9732   1.743   2.939   2.820
 1980SOL     OW 9733   1.227   3.412   3.368
 1980SOL    HW1 9734   1.233   3.335   3.432
 1980SOL    HW2 9735   1.175   3.386   3.288
 1981SOL     OW 9736   0.321   2.805   2.104
 1981SOL    HW1 9737   0.403   2.844   2.062
 1981SOL    HW2 9738   0.294   2.723   2.055
 1982SOL     OW 9739   0.461   3.128   3.589
 1982SOL    HW1 9740   0.411   3.129   3.503
 1982SOL    HW2 9741   0.398   3.110   3.665
 1983SOL     OW 9742   1.111   3.638   2.099
 1983SOL    HW1 9743   1.051   3.576   2.149
 1983SOL    HW2 9744   1.142   3.594   2.014
 1984SOL     OW 9745   1.632   3.239   1.943
 1984SOL    HW1 9746   1.600   3.333   1.933
 1984SOL    HW2 9747   1.556   3.176   1.931
 1985SOL     OW 9748   0.464   3.605   2.185
 1985SOL    HW1 9749   0.497   3.644   2.271
 1985SOL    HW2 9750   0.540   3.598   2.120
 1986SOL     OW 9751   1.400   1.969   2.288
 1986SOL    HW1 9752   1.376   1.932   2.198
 1986SOL    HW2 9753   1.499   1.985   2.292
 1987SOL     OW 9754   0.249   3.647   3.103
 1987SOL    HW1 9755   0.306   3.582   3.153
 1987SOL    HW2 9756   0.233   3.614   3.010
 1988SOL     OW 9757   0.940   3.560   2.766
 1988SOL    HW1 9758   1.020   3.503   2.787
 1988SOL    HW2 9759   0.891   3.520   2.689
 1989SOL     OW 9760   1.547   2.084   3.591
 1989SOL    HW1 9761   1.542   2.121   3.683
 1989SOL    HW2 9762   1.475   2.015   3.579
 1990SOL     OW 9763   0.614   1.984   1.979
 1990SOL    HW1 9764   0.712   1.962   1.986
 1990SOL    HW2 9765   0.583   1.967   1.886
 1991SOL     OW 9766   0.781   2.126   3.611
 1991SOL    HW1 9767   0.848   2.065   3.654
 1991SOL    HW2 9768   0.708   2.145   3.676
 1992SOL     OW 9769   0.888   3.376   3.057
 1992SOL    HW1 9770   0.865   3.351   2.963
 1992SOL    HW2 9771   0.949   3.307   3.096
 1993SOL     OW 9772   1.351   2.452   3.295
 1993SOL    HW1 9773   1.379   2.409   3.380
 1993SOL    HW2 9774   1.376   2.548   3.296
 1994SOL     OW 9775   0.803   3.264   2.786
 1994SOL    HW1 9776   0.893   3.278   2.744
 1994SOL    HW2 9777   0.732   3.266   2.715
 1995SOL     OW 9778   0.922   2.365   2.761
 1995SOL    HW1 9779   0.897   2.356   2.665
 1995SOL    HW2 9780   0.970   2.283   2.792
 1996SOL     OW 9781   0.539   1.926   2.374
 1996SOL    HW1 9782   0.458   1.927   2.432
 1996SOL    HW2 9783   0.542   2.009   2.319
 1997SOL     OW 9784   1.434   3.050   1.903
 1997SOL    HW1 9785   1.466   2.974   1.960
 1997SOL    HW2 9786   1.342   3.077   1.933
 1998SOL     OW 9787   0.297   1.897   2.033
 1998SOL    HW1 9788   0.346   1.981   2.012
 1998SOL    HW2 9789   0.359   1.832   2.078
 1999SOL     OW 9790   0.935   2.098   2.342
 1999SOL    HW1 9791   0.887   2.139   2.264
 1999SOL    HW2 9792   1.034   2.096   2.323
 2000SOL     OW 9793   1.076   2.545   3.326
 2000SOL    HW1 9794   0.996   2.484   3.329
 2000SOL    HW2 9795   1.157   2.492   3.302
 2001SOL     OW 9796   0.459   3.014   2.603
 2001SOL    HW1 9797   0.388   2.987   2.668
 2001SOL    HW2 9798   0.433   2.986   2.510
 2002SOL     OW 9799   1.032   2.411   1.878
 2002SOL    HW1 9800   0.991   2.493   1.839
 2002SOL    HW2 9801   1.096   2.437   1.951
 2003SOL     OW 9802   0.561   2.084   3.009
 2003SOL    HW1 9803   0.599   2.000   3.046
 2003SOL    HW2 9804   0.473   2.103   3.053
 2004SOL     OW 9805   0.866   2.316   2.504
 2004SOL    HW1 9806   0.834   2.388   2.442
 2004SOL    HW2 9807   0.890   2.235   2.451
 2005SOL     OW 9808   1.017   1.901   2.615
 2005SOL    HW1 9809   0.945   1.906   2.546
 2005SOL    HW2 9810   0.993   1.832   2.684
 2006SOL     OW 9811   1.429   3.035   2.729
 2006SOL    HW1 9812   1.374   2.951   2.722
 2006SOL    HW2 9813   1.455   3.064   2.637
 2007SOL     OW 9814   1.857   2.695   2.239
 2007SOL    HW1 9815   1.899   2.631   2.303
 2007SOL    HW2 9816   1.819   2.644   2.161
 2008SOL     OW 9817   0.488   3.247   2.036
 2008SOL    HW1 9818   0.401   3.232   2.083
 2008SOL    HW2 9819   0.471   3.273   1.941
 2009SOL     OW 9820   1.664   3.142   2.519
 2009SOL    HW1 9821   1.763   3.150   2.533
 2009SOL    HW2 9822   1.619   3.226   2.550
 2010SOL     OW 9823   1.390   2.437   1.940
 2010SOL    HW1 9824   1.336   2.416   2.021
 2010SOL    HW2 9825   1.481   2.396   1.949
 2011SOL     OW 9826   0.527   2.118   2.190
 2011SOL    HW1 9827   0.554   2.059   2.115
 2011SOL    HW2 9828   0.527   2.213   2.159
 2012SOL     OW 9829   1.754   3.085   3.450
 2012SOL    HW1 9830   1.845   3.046   3.437
 2012SOL    HW2 9831   1.762   3.181   3.474
 2013SOL     OW 9832   1.064   3.209   3.202
 2013SOL    HW1 9833   0.984   3.186   3.257
 2013SOL    HW2 9834   1.147   3.183   3.251
 2014SOL     OW 9835   1.111   3.057   2.962
 2014SOL    HW1 9836   1.071   3.101   3.043
 2014SOL    HW2 9837   1.070   3.094   2.879
 2015SOL     OW 9838   1.638   2.961   2.941
 2015SOL    HW1 9839   1.643   3.042   3.000
 2015SOL    HW2 9840   1.552   2.963   2.890
 2016SOL     OW 9841   0.915   1.951   3.264
 2016SOL    HW1 9842   0.940   1.931   3.169
 2016SOL    HW2 9843   0.987   2.007   3.306
 2017SOL     OW 9844   0.980   2.978   3.581
 2017SOL    HW1 9845   0.881   2.984   3.591
 2017SOL    HW2 9846   1.003   2.898   3.525
 2018SOL     OW 9847   0.705   2.912   2.230
 2018SOL    HW1 9848   0.691   2.919   2.329
 2018SOL    HW2 9849   0.789   2.861   2.212
 2019SOL     OW 9850   0.410   2.675   3.113
 2019SOL    HW1 9851   0.496   2.687   3.163
 2019SOL    HW2 9852   0.368   2.588   3.140
 2020SOL     OW 9853   1.274   2.248   3.124
 2020SOL    HW1 9854   1.295   2.322   3.188
 2020SOL    HW2 9855   1.185   2.265   3.081
 2021SOL     OW 9856   0.064   3.426   3.193
 2021SOL    HW1 9857   0.018   3.508   3.159
 2021SOL    HW2 9858   0.162   3.445   3.202
 2022SOL     OW 9859   0.367   2.962   2.363
 2022SOL    HW1 9860   0.360   3.045   2.307
 2022SOL    HW2 9861   0.371   2.882   2.303
 2023SOL     OW 9862   1.252   3.210   2.250
 2023SOL    HW1 9863   1.302   3.287   2.290
 2023SOL    HW2 9864   1.157   3.212   2.282
 2024SOL     OW 9865   1.272   3.307   3.004
 2024SOL    HW1 9866   1.319   3.320   3.091
 2024SOL    HW2 9867   1.206   3.233   3.013
 2025SOL     OW 9868   1.582   2.501   2.334
 2025SOL    HW1 9869   1.551   2.562   2.407
 2025SOL    HW2 9870   1.632   2.553   2.265
 2026SOL     OW 9871   0.354   3.372   3.191
 2026SOL    HW1 9872   0.333   3.328   3.104
 2026SOL    HW2 9873   0.451   3.398   3.194
 2027SOL     OW 9874   1.587   2.641   3.532
 2027SOL    HW1 9875   1.495   2.679   3.527
 2027SOL    HW2 9876   1.647   2.688   3.467
 2028SOL     OW 9877   1.013   1.967   3.632
 2028SOL    HW1 9878   1.019   2.052   3.580
 2028SOL    HW2 9879   1.045   1.891   3.575
 2029SOL     OW 9880   0.504   1.912   3.602
 2029SOL    HW1 9881   0.462   1.855   3.532
 2029SOL    HW2 9882   0.438   1.981   3.634
 2030SOL     OW 9883   0.573   2.732   2.891
 2030SOL    HW1 9884   0.617   2.821   2.882
 2030SOL    HW2 9885   0.510   2.732   2.968
 2031SOL     OW 9886   1.360   2.724   2.907
 2031SOL    HW1 9887   1.285   2.724   2.841
 2031SOL    HW2 9888   1.397   2.632   2.916
 2032SOL     OW 9889   1.209   2.387   2.137
 2032SOL    HW1 9890   1.222   2.303   2.191
 2032SOL    HW2 9891   1.180   2.461   2.197
 2033SOL     OW 9892   0.307   2.075   3.093
 2033SOL    HW1 9893   0.284   2.112   3.183
 2033SOL    HW2 9894   0.277   1.980   3.087
 2034SOL     OW 9895   0.037   3.172   3.144
 2034SOL    HW1 9896   0.090   3.123   3.212
 2034SOL    HW2 9897   0.059   3.270   3.149
 2035SOL     OW 9898   0.732   2.496   2.926
 2035SOL    HW1 9899   0.791   2.470   2.850
 2035SOL    HW2 9900   0.704   2.592   2.915
 2036SOL     OW 9901   1.728   2.797   3.716
 2036SOL    HW1 9902   1.682   2.790   3.627
 2036SOL    HW2 9903   1.666   2.841   3.782
 2037SOL     OW 9904   0.307   1.925   2.480
 2037SOL    HW1 9905   0.296   2.019   2.513
 2037SOL    HW2 9906   0.302   1.862   2.557
 2038SOL     OW 9907   1.622   2.229   2.236
 2038SOL    HW1 9908   1.624   2.153   2.300
 2038SOL    HW2 9909   1.574   2.306   2.276
 2039SOL     OW 9910   1.023   2.628   2.828
 2039SOL    HW1 9911   1.038   2.649   2.924
 2039SOL    HW2 9912   0.993   2.533   2.819
 2040SOL     OW 9913   0.980   3.435   3.562
 2040SOL    HW1 9914   0.960   3.479   3.474
 2040SOL    HW2 9915   1.019   3.344   3.546
 2041SOL     OW 9916   1.859   3.380   3.467
 2041SOL    HW1 9917   1.873   3.407   3.372
 2041SOL    HW2 9918   1.942   3.402   3.520
 2042SOL     OW 9919   0.350   2.760   3.666
 2042SOL    HW1 9920   0.426   2.804   3.714
 2042SOL    HW2 9921   0.385   2.713   3.584
 2043SOL     OW 9922   1.540   2.136   1.987
 2043SOL    HW1 9923   1.479   2.061   2.010
 2043SOL    HW2 9924   1.562   2.188   2.070
 2044SOL     OW 9925   1.303   2.700   1.904
 2044SOL    HW1 9926   1.337   2.607   1.919
 2044SOL    HW2 9927   1.321   2.727   1.809
 2045SOL     OW 9928   1.068   3.195   2.711
 2045SOL    HW1 9929   1.075   3.111   2.656
 2045SOL    HW2 9930   1.130   3.264   2.675
 2046SOL     OW 9931   0.319   2.672   2.811
 2046SOL    HW1 9932   0.412   2.708   2.816
 2046SOL    HW2 9933   0.313   2.587   2.863
 2047SOL     OW 9934   0.339   2.371   2.868
 2047SOL    HW1 9935   0.287   2.288   2.851
 2047SOL    HW2 9936   0.416   2.376   2.804
 2048SOL     OW 9937   1.138   2.242   3.540
 2048SOL    HW1 9938   1.093   2.305   3.604
 2048SOL    HW2 9939   1.231   2.273   3.523
 2049SOL     OW 9940   1.160   2.069   3.339
 2049SOL    HW1 9941   1.160   2.133   3.416
 2049SOL    HW2 9942   1.188   2.117   3.256
 2050SOL     OW 9943   0.008   3.188   2.062
 2050SOL    HW1 9944  -0.085   3.209   2.031
 2050SOL    HW2 9945   0.018   3.089   2.075
 2051SOL     OW 9946   0.088   3.663   2.789
 2051SOL    HW1 9947   0.046   3.577   2.762
 2051SOL    HW2 9948   0.182   3.666   2.755
 2052SOL     OW 9949   0.504   3.430   2.772
 2052SOL    HW1 9950   0.570   3.504   2.781
 2052SOL    HW2 9951   0.548   3.351   2.730
 2053SOL     OW 9952   1.002   2.658   3.100
 2053SOL    HW1 9953   1.043   2.626   3.186
 2053SOL    HW2 9954   0.906   2.631   3.097
 2054SOL     OW 9955   0.040   2.406   2.976
 2054SOL    HW1 9956   0.125   2.373   2.935
 2054SOL    HW2 9957   0.053   2.421   3.074
 2055SOL     OW 9958   1.369   2.812   3.522
 2055SOL    HW1 9959   1.408   2.901   3.542
 2055SOL    HW2 9960   1.379   2.792   3.425
 2056SOL     OW 9961   0.252   3.426   3.606
 2056SOL    HW1 9962   0.222   3.483   3.682
 2056SOL    HW2 9963   0.245   3.329   3.632
 2057SOL     OW 9964   0.930   3.540   3.327
 2057SOL    HW1 9965   0.906   3.522   3.232
 2057SOL    HW2 9966   0.960   3.634   3.337
 2058SOL     OW 9967   0.473   2.362   2.053
 2058SOL    HW1 9968   0.534   2.442   2.057
 2058SOL    HW2 9969   0.378   2.393   2.060
 2059SOL     OW 9970   0.159   2.999   3.328
 2059SOL    HW1 9971   0.181   2.938   3.404
 2059SOL    HW2 9972   0.169   2.950   3.242
 2060SOL     OW 9973   1.347   2.921   3.096
 2060SOL    HW1 9974   1.371   2.858   3.022
 2060SOL    HW2 9975   1.257   2.961   3.078
 2061SOL     OW 9976   1.302   2.717   2.171
 2061SOL    HW1 9977   1.216   2.686   2.213
 2061SOL    HW2 9978   1.298   2.703   2.072
 2062SOL     OW 9979   1.759   3.609   3.016
 2062SOL    HW1 9980   1.820   3.639   2.943
 2062SOL    HW2 9981   1.721   3.520   2.994
 2063SOL     OW 9982   1.252   3.593   2.990
 2063SOL    HW1 9983   1.336   3.598   2.936
 2063SOL    HW2 9984   1.229   3.497   3.008
 2064SOL     OW 9985   0.083   3.120   2.884
 2064SOL    HW1 9986   0.078   3.119   2.984
 2064SOL    HW2 9987   0.000   3.079   2.846
 2065SOL     OW 9988   0.688   3.524   3.578
 2065SOL    HW1 9989   0.632   3.605   3.587
 2065SOL    HW2 9990   0.740   3.528   3.492
 2066SOL     OW 9991   1.726   1.997   2.385
 2066SOL    HW1 9992   1.799   1.980   2.318
 2066SOL    HW2 9993   1.695   1.910   2.423
 2067SOL     OW 9994   1.388   3.435   2.339
 2067SOL    HW1 9995   1.455   3.447   2.265
 2067SOL    HW2 9996   1.348   3.524   2.362
 2068SOL     OW 9997   0.130   3.656   3.713
 2068SOL    HW1 9998   0.089   3.582   3.766
 2068SOL    HW2 9999   0.194   3.707   3.771
 2069SOL     OW10000   1.280   2.789   2.534
 2069SOL    HW110001   1.340   2.708   2.536
 2069SOL    HW210002   1.320   2.858   2.474
 2070SOL     OW10003   0.830   3.135   3.284
 2070SOL    HW110004   0.825   3.168   3.379
 2070SOL    HW210005   0.744   3.154   3.238
 2071SOL     OW10006   0.672   3.478   2.016
 2071SOL    HW110007   0.681   3.488   1.917
 2071SOL    HW210008   0.632   3.389   2.037
 2072SOL     OW10009   1.841   2.037   2.825
 2072SOL    HW110010   1.880   1.952   2.789
 2072SOL    HW210011   1.743   2.039   2.806
 2073SOL     OW10012   0.263   2.188   2.582
 2073SOL    HW110013   0.184   2.239   2.548
 2073SOL    HW210014   0.254   2.173   2.680
 2074SOL     OW10015   1.194   3.474   1.893
 2074SOL    HW110016   1.200   3.381   1.930
 2074SOL    HW210017   1.135   3.474   1.813
 2075SOL     OW10018   0.822   2.864   3.234
 2075SOL    HW110019   0.862   2.863   3.142
 2075SOL    HW210020   0.832   2.956   3.274
 2076SOL     OW10021   0.916   2.772   2.153
 2076SOL    HW110022   0.979   2.810   2.085
 2076SOL    HW210023   0.956   2.689   2.192
 2077SOL     OW10024   1.504   3.469   1.906
 2077SOL    HW110025   1.412   3.506   1.913
 2077SOL    HW210026   1.542   3.489   1.816
 2078SOL     OW10027   0.372   3.150   3.352
 2078SOL    HW110028   0.359   3.243   3.318
 2078SOL    HW210029   0.288   3.098   3.339
 2079SOL     OW10030   1.614   3.154   3.151
 2079SOL    HW110031   1.674   3.157   3.231
 2079SOL    HW210032   1.539   3.218   3.164
 2080SOL     OW10033   1.039   2.960   2.558
 2080SOL    HW110034   0.969   2.913   2.612
 2080SOL    HW210035   1.098   2.892   2.515
 2081SOL     OW10036   1.014   2.098   2.833
 2081SOL    HW110037   1.006   2.062   2.740
 2081SOL    HW210038   1.012   2.022   2.898
 2082SOL     OW10039   0.590   3.349   2.353
 2082SOL    HW110040   0.632   3.291   2.283
 2082SOL    HW210041   0.546   3.428   2.309
 2083SOL     OW10042   1.709   2.247   3.243
 2083SOL    HW110043   1.782   2.316   3.247
 2083SOL    HW210044   1.737   2.172   3.184
 2084SOL     OW10045   0.255   3.210   2.152
 2084SOL    HW110046   0.159   3.211   2.125
 2084SOL    HW210047   0.267   3.263   2.236
 2085SOL     OW10048   0.105   2.875   3.588
 2085SOL    HW110049   0.028   2.842   3.642
 2085SOL    HW210050   0.190   2.845   3.630
 2086SOL     OW10051   0.075   2.207   1.895
 2086SOL    HW110052  -0.017   2.179   1.866
 2086SOL    HW210053   0.106   2.284   1.839
 2087SOL     OW10054   1.440   2.718   3.260
 2087SOL    HW110055   1.383   2.770   3.197
 2087SOL    HW210056   1.536   2.730   3.236
 2088SOL     OW10057   0.072   2.028   2.180
 2088SOL    HW110058   0.055   2.111   2.126
 2088SOL    HW210059   0.162   1.991   2.158
 2089SOL     OW10060   1.183   3.197   1.981
 2089SOL    HW110061   1.084   3.186   1.983
 2089SOL    HW210062   1.217   3.212   2.074
 2090SOL     OW10063   0.613   2.704   3.293
 2090SOL    HW110064   0.669   2.785   3.276
 2090SOL    HW210065   0.672   2.624   3.296
 2091SOL     OW10066   1.493   3.629   2.821
 2091SOL    HW110067   1.526   3.693   2.752
 2091SOL    HW210068   1.559   3.623   2.896
 2092SOL     OW10069   1.450   3.082   3.495
 2092SOL    HW110070   1.441   3.072   3.594
 2092SOL    HW210071   1.546   3.075   3.469
 2093SOL     OW10072   0.390   3.603   3.422
 2093SOL    HW110073   0.299   3.644   3.420
 2093SOL    HW210074   0.383   3.509   3.454
 2094SOL     OW10075   1.225   2.187   2.311
 2094SOL    HW110076   1.290   2.113   2.300
 2094SOL    HW210077   1.245   2.237   2.395
 2095SOL     OW10078   1.777   2.204   3.504
 2095SOL    HW110079   1.760   2.235   3.410
 2095SOL    HW210080   1.693   2.167   3.542
 2096SOL     OW10081   1.730   2.796   3.379
 2096SOL    HW110082   1.768   2.887   3.394
 2096SOL    HW210083   1.722   2.779   3.280
 2097SOL     OW10084   0.859   3.236   1.878
 2097SOL    HW110085   0.813   3.251   1.966
 2097SOL    HW210086   0.903   3.321   1.848
 2098SOL     OW10087   0.859   2.818   2.723
 2098SOL    HW110088   0.913   2.749   2.771
 2098SOL    HW210089   0.827   2.887   2.789
 2099SOL     OW10090   1.083   2.846   1.949
 2099SOL    HW110091   1.060   2.899   1.867
 2099SOL    HW210092   1.164   2.790   1.930
 2100SOL     OW10093   1.861   3.431   2.713
 2100SOL    HW110094   1.790   3.419   2.643
 2100SOL    HW210095   1.862   3.352   2.773
 2101SOL     OW10096   0.221   3.176   3.706
 2101SOL    HW110097   0.156   3.103   3.685
 2101SOL    HW210098   0.225   3.190   3.804
 2102SOL     OW10099   0.079   3.102   2.515
 2102SOL    HW110100   0.078   3.055   2.603
 2102SOL    HW210101   0.161   3.074   2.464
 2103SOL     OW10102   0.672   3.253   3.486
 2103SOL    HW110103   0.594   3.203   3.524
 2103SOL    HW210104   0.669   3.348   3.517
 2104SOL     OW10105   1.824   2.054   3.089
 2104SOL    HW110106   1.820   1.964   3.133
 2104SOL    HW210107   1.827   2.043   2.990
 2105SOL     OW10108   1.705   3.349   2.966
 2105SOL    HW110109   1.612   3.324   2.939
 2105SOL    HW210110   1.731   3.299   3.048
 2106SOL     OW10111   0.317   2.409   3.142
 2106SOL    HW110112   0.355   2.350   3.214
 2106SOL    HW210113   0.357   2.383   3.054
 2107SOL     OW10114   1.424   2.076   2.974
 2107SOL    HW110115   1.476   2.011   3.029
 2107SOL    HW210116   1.375   2.139   3.035
 2108SOL     OW10117   1.001   1.896   3.016
 2108SOL    HW110118   0.938   1.824   2.985
 2108SOL    HW210119   1.094   1.860   3.016
 2109SOL     OW10120   0.770   3.192   2.163
 2109SOL    HW110121   0.724   3.105   2.180
 2109SOL    HW210122   0.861   3.189   2.204
 2110SOL     OW10123   0.618   3.429   3.146
 2110SOL    HW110124   0.613   3.511   3.203
 2110SOL    HW210125   0.707   3.426   3.101
 2111SOL     OW10126   1.352   1.914   2.030
 2111SOL    HW110127   1.387   1.873   1.946
 2111SOL    HW210128   1.262   1.876   2.050
 2112SOL     OW10129   1.300   2.315   2.553
 2112SOL    HW110130   1.241   2.395   2.557
 2112SOL    HW210131   1.315   2.280   2.646
 2113SOL     OW10132   1.593   2.083   2.744
 2113SOL    HW110133   1.509   2.082   2.798
 2113SOL    HW210134   1.595   2.166   2.688
 2114SOL     OW10135   0.039   2.939   2.162
 2114SOL    HW110136   0.138   2.928   2.153
 2114SOL    HW210137  -0.001   2.853   2.194
 2115SOL     OW10138   0.230   2.490   3.837
 2115SOL    HW110139   0.137   2.488   3.874
 2115SOL    HW210140   0.231   2.451   3.745
 2116SOL     OW10141   0.225   2.137   4.720
 2116SOL    HW110142   0.260   2.120   4.812
 2116SOL    HW210143   0.137   2.092   4.708
 2117SOL     OW10144   0.569   3.137   4.889
 2117SOL    HW110145   0.476   3.130   4.852
 2117SOL    HW210146   0.580   3.226   4.933
 2118SOL     OW10147   1.555   3.373   4.427
 2118SOL    HW110148   1.498   3.357   4.508
 2118SOL    HW210149   1.496   3.383   4.347
 2119SOL     OW10150   1.135   2.565   4.441
 2119SOL    HW110151   1.192   2.643   4.416
 2119SOL    HW210152   1.075   2.591   4.517
 2120SOL     OW10153   1.755   2.469   3.955
 2120SOL    HW110154   1.743   2.456   3.856
 2120SOL    HW210155   1.725   2.388   4.004
 2121SOL     OW10156   0.768   3.006   4.747
 2121SOL    HW110157   0.690   3.023   4.807
 2121SOL    HW210158   0.802   3.093   4.711
 2122SOL     OW10159   0.850   2.660   5.547
 2122SOL    HW110160   0.846   2.736   5.612
 2122SOL    HW210161   0.872   2.696   5.456
 2123SOL     OW10162   0.685   2.874   4.389
 2123SOL    HW110163   0.754   2.858   4.459
 2123SOL    HW210164   0.612   2.931   4.427
 2124SOL     OW10165   0.686   3.023   5.527
 2124SOL    HW110166   0.746   3.102   5.541
 2124SOL    HW210167   0.600   3.054   5.486
 2125SOL     OW10168   1.460   3.367   5.063
 2125SOL    HW110169   1.484   3.461   5.089
 2125SOL    HW210170   1.444   3.313   5.145
 2126SOL     OW10171   0.438   2.254   5.223
 2126SOL    HW110172   0.520   2.198   5.232
 2126SOL    HW210173   0.357   2.196   5.227
 2127SOL     OW10174   1.603   2.309   4.461
 2127SOL    HW110175   1.529   2.355   4.411
 2127SOL    HW210176   1.654   2.377   4.514
 2128SOL     OW10177   0.231   3.575   4.207
 2128SOL    HW110178   0.265   3.652   4.261
 2128SOL    HW210179   0.275   3.575   4.117
 2129SOL     OW10180   1.127   3.203   5.414
 2129SOL    HW110181   1.174   3.203   5.502
 2129SOL    HW210182   1.079   3.116   5.403
 2130SOL     OW10183   0.240   2.953   4.610
 2130SOL    HW110184   0.254   2.869   4.662
 2130SOL    HW210185   0.185   3.017   4.665
 2131SOL     OW10186   0.606   2.826   3.847
 2131SOL    HW110187   0.613   2.910   3.793
 2131SOL    HW210188   0.652   2.839   3.935
 2132SOL     OW10189   1.594   1.976   5.204
 2132SOL    HW110190   1.576   2.043   5.132
 2132SOL    HW210191   1.591   2.022   5.293
 2133SOL     OW10192   0.122   2.505   4.287
 2133SOL    HW110193   0.077   2.417   4.304
 2133SOL    HW210194   0.121   2.559   4.371
 2134SOL     OW10195   1.842   3.629   4.083
 2134SOL    HW110196   1.896   3.600   4.163
 2134SOL    HW210197   1.872   3.719   4.054
 2135SOL     OW10198   0.027   3.458   3.841
 2135SOL    HW110199   0.008   3.362   3.862
 2135SOL    HW210200  -0.006   3.516   3.916
 2136SOL     OW10201   1.689   2.784   4.336
 2136SOL    HW110202   1.784   2.755   4.344
 2136SOL    HW210203   1.681   2.849   4.261
 2137SOL     OW10204   1.641   2.970   4.156
 2137SOL    HW110205   1.727   2.972   4.104
 2137SOL    HW210206   1.655   3.017   4.244
 2138SOL     OW10207   0.113   2.599   5.321
 2138SOL    HW110208   0.201   2.586   5.366
 2138SOL    HW210209   0.100   2.696   5.299
 2139SOL     OW10210   1.293   3.090   5.147
 2139SOL    HW110211   1.330   3.017   5.089
 2139SOL    HW210212   1.345   3.095   5.232
 2140SOL     OW10213   0.809   1.866   4.226
 2140SOL    HW110214   0.849   1.957   4.217
 2140SOL    HW210215   0.709   1.874   4.232
 2141SOL     OW10216   0.197   2.838   4.988
 2141SOL    HW110217   0.286   2.793   4.974
 2141SOL    HW210218   0.124   2.773   4.969
 2142SOL     OW10219   1.525   2.861   3.914
 2142SOL    HW110220   1.462   2.785   3.927
 2142SOL    HW210221   1.573   2.879   4.000
 2143SOL     OW10222   1.187   3.654   5.340
 2143SOL    HW110223   1.211   3.714   5.264
 2143SOL    HW210224   1.194   3.559   5.310
 2144SOL     OW10225   0.317   2.113   5.525
 2144SOL    HW110226   0.388   2.184   5.531
 2144SOL    HW210227   0.229   2.152   5.553
 2145SOL     OW10228   1.667   3.576   4.296
 2145SOL    HW110229   1.626   3.553   4.208
 2145SOL    HW210230   1.649   3.502   4.361
 2146SOL     OW10231   0.598   2.591   3.994
 2146SOL    HW110232   0.622   2.660   3.926
 2146SOL    HW210233   0.520   2.624   4.048
 2147SOL     OW10234   1.281   2.207   4.668
 2147SOL    HW110235   1.195   2.157   4.655
 2147SOL    HW210236   1.343   2.153   4.724
 2148SOL     OW10237   1.576   3.524   4.031
 2148SOL    HW110238   1.665   3.570   4.034
 2148SOL    HW210239   1.555   3.500   3.936
 2149SOL     OW10240   0.807   2.467   5.189
 2149SOL    HW110241   0.760   2.464   5.278
 2149SOL    HW210242   0.756   2.412   5.123
 2150SOL     OW10243   0.973   2.752   5.296
 2150SOL    HW110244   1.019   2.668   5.267
 2150SOL    HW210245   0.917   2.786   5.221
 2151SOL     OW10246   0.991   2.272   4.966
 2151SOL    HW110247   0.914   2.306   5.020
 2151SOL    HW210248   0.957   2.221   4.887
 2152SOL     OW10249   1.041   2.563   4.153
 2152SOL    HW110250   1.067   2.559   4.249
 2152SOL    HW210251   0.956   2.512   4.139
 2153SOL     OW10252   0.076   2.673   4.513
 2153SOL    HW110253   0.175   2.661   4.522
 2153SOL    HW210254   0.052   2.768   4.534
 2154SOL     OW10255   0.130   3.683   5.295
 2154SOL    HW110256   0.120   3.668   5.394
 2154SOL    HW210257   0.044   3.719   5.259
 2155SOL     OW10258   0.865   2.210   3.919
 2155SOL    HW110259   0.924   2.273   3.870
 2155SOL    HW210260   0.884   2.116   3.890
 2156SOL     OW10261   1.719   2.447   5.555
 2156SOL    HW110262   1.693   2.536   5.519
 2156SOL    HW210263   1.717   2.379   5.482
 2157SOL     OW10264   1.362   3.006   4.269
 2157SOL    HW110265   1.445   2.977   4.221
 2157SOL    HW210266   1.313   3.073   4.213
 2158SOL     OW10267   0.550   2.058   4.609
 2158SOL    HW110268   0.545   2.053   4.709
 2158SOL    HW210269   0.552   2.154   4.580
 2159SOL     OW10270   1.008   3.318   4.201
 2159SOL    HW110271   0.962   3.390   4.149
 2159SOL    HW210272   1.004   3.338   4.299
 2160SOL     OW10273   1.795   2.928   4.597
 2160SOL    HW110274   1.733   2.913   4.521
 2160SOL    HW210275   1.743   2.939   4.682
 2161SOL     OW10276   1.227   3.412   5.230
 2161SOL    HW110277   1.233   3.335   5.294
 2161SOL    HW210278   1.175   3.386   5.150
 2162SOL     OW10279   0.321   2.805   3.966
 2162SOL    HW110280   0.403   2.844   3.924
 2162SOL    HW210281   0.294   2.723   3.917
 2163SOL     OW10282   1.458   2.597   4.452
 2163SOL    HW110283   1.453   2.532   4.527
 2163SOL    HW210284   1.538   2.656   4.465
 2164SOL     OW10285   0.461   3.128   5.451
 2164SOL    HW110286   0.411   3.129   5.365
 2164SOL    HW210287   0.398   3.110   5.527
 2165SOL     OW10288   1.111   3.638   3.961
 2165SOL    HW110289   1.051   3.576   4.011
 2165SOL    HW210290   1.142   3.594   3.876
 2166SOL     OW10291   0.202   2.147   5.222
 2166SOL    HW110292   0.122   2.207   5.209
 2166SOL    HW210293   0.192   2.098   5.308
 2167SOL     OW10294   1.632   3.239   3.805
 2167SOL    HW110295   1.600   3.333   3.795
 2167SOL    HW210296   1.556   3.176   3.793
 2168SOL     OW10297   0.464   3.605   4.047
 2168SOL    HW110298   0.497   3.644   4.133
 2168SOL    HW210299   0.540   3.598   3.982
 2169SOL     OW10300   1.400   1.969   4.150
 2169SOL    HW110301   1.376   1.932   4.060
 2169SOL    HW210302   1.499   1.985   4.154
 2170SOL     OW10303   0.249   3.647   4.965
 2170SOL    HW110304   0.306   3.582   5.015
 2170SOL    HW210305   0.233   3.614   4.872
 2171SOL     OW10306   0.382   2.562   4.204
 2171SOL    HW110307   0.427   2.472   4.201
 2171SOL    HW210308   0.288   2.551   4.237
 2172SOL     OW10309   1.547   2.084   5.453
 2172SOL    HW110310   1.542   2.121   5.545
 2172SOL    HW210311   1.475   2.015   5.441
 2173SOL     OW10312   0.614   1.984   3.841
 2173SOL    HW110313   0.712   1.962   3.848
 2173SOL    HW210314   0.583   1.967   3.748
 2174SOL     OW10315   0.781   2.126   5.473
 2174SOL    HW110316   0.848   2.065   5.516
 2174SOL    HW210317   0.708   2.145   5.538
 2175SOL     OW10318   0.922   2.365   4.623
 2175SOL    HW110319   0.897   2.356   4.527
 2175SOL    HW210320   0.970   2.283   4.654
 2176SOL     OW10321   0.539   1.926   4.236
 2176SOL    HW110322   0.458   1.927   4.294
 2176SOL    HW210323   0.542   2.009   4.181
 2177SOL     OW10324   1.434   3.050   3.765
 2177SOL    HW110325   1.466   2.974   3.822
 2177SOL    HW210326   1.342   3.077   3.795
 2178SOL     OW10327   0.935   2.098   4.204
 2178SOL    HW110328   0.887   2.139   4.126
 2178SOL    HW210329   1.034   2.096   4.185
 2179SOL     OW10330   0.459   3.014   4.465
 2179SOL    HW110331   0.388   2.987   4.530
 2179SOL    HW210332   0.433   2.986   4.372
 2180SOL     OW10333   1.271   3.659   4.315
 2180SOL    HW110334   1.315   3.723   4.251
 2180SOL    HW210335   1.221   3.711   4.385
 2181SOL     OW10336   1.032   2.411   3.740
 2181SOL    HW110337   0.991   2.493   3.701
 2181SOL    HW210338   1.096   2.437   3.813
 2182SOL     OW10339   0.078   2.418   5.110
 2182SOL    HW110340   0.170   2.417   5.069
 2182SOL    HW210341   0.072   2.492   5.177
 2183SOL     OW10342   0.561   2.084   4.871
 2183SOL    HW110343   0.599   2.000   4.908
 2183SOL    HW210344   0.473   2.103   4.915
 2184SOL     OW10345   0.866   2.316   4.366
 2184SOL    HW110346   0.834   2.388   4.304
 2184SOL    HW210347   0.890   2.235   4.313
 2185SOL     OW10348   1.017   1.901   4.477
 2185SOL    HW110349   0.945   1.906   4.408
 2185SOL    HW210350   0.993   1.832   4.546
 2186SOL     OW10351   1.429   3.035   4.591
 2186SOL    HW110352   1.374   2.951   4.584
 2186SOL    HW210353   1.455   3.064   4.499
 2187SOL     OW10354   1.466   2.452   4.716
 2187SOL    HW110355   1.436   2.357   4.723
 2187SOL    HW210356   1.539   2.468   4.782
 2188SOL     OW10357   1.857   2.695   4.101
 2188SOL    HW110358   1.899   2.631   4.165
 2188SOL    HW210359   1.819   2.644   4.023
 2189SOL     OW10360   0.488   3.247   3.898
 2189SOL    HW110361   0.401   3.232   3.945
 2189SOL    HW210362   0.471   3.273   3.803
 2190SOL     OW10363   1.664   3.142   4.381
 2190SOL    HW110364   1.763   3.150   4.395
 2190SOL    HW210365   1.619   3.226   4.412
 2191SOL     OW10366   1.390   2.437   3.802
 2191SOL    HW110367   1.336   2.416   3.883
 2191SOL    HW210368   1.481   2.396   3.811
 2192SOL     OW10369   0.527   2.118   4.052
 2192SOL    HW110370   0.554   2.059   3.977
 2192SOL    HW210371   0.527   2.213   4.021
 2193SOL     OW10372   1.754   3.085   5.312
 2193SOL    HW110373   1.845   3.046   5.299
 2193SOL    HW210374   1.762   3.181   5.336
 2194SOL     OW10375   1.064   3.209   5.064
 2194SOL    HW110376   0.984   3.186   5.119
 2194SOL    HW210377   1.147   3.183   5.113
 2195SOL     OW10378   1.592   3.491   5.349
 2195SOL    HW110379   1.619   3.525   5.259
 2195SOL    HW210380   1.671   3.453   5.395
 2196SOL     OW10381   1.111   3.057   4.824
 2196SOL    HW110382   1.071   3.101   4.905
 2196SOL    HW210383   1.070   3.094   4.741
 2197SOL     OW10384   1.638   2.961   4.803
 2197SOL    HW110385   1.643   3.042   4.862
 2197SOL    HW210386   1.552   2.963   4.752
 2198SOL     OW10387   0.915   1.951   5.126
 2198SOL    HW110388   0.940   1.931   5.031
 2198SOL    HW210389   0.987   2.007   5.168
 2199SOL     OW10390   0.980   2.978   5.443
 2199SOL    HW110391   0.881   2.984   5.453
 2199SOL    HW210392   1.003   2.898   5.387
 2200SOL     OW10393   0.705   2.912   4.092
 2200SOL    HW110394   0.691   2.919   4.191
 2200SOL    HW210395   0.789   2.861   4.074
 2201SOL     OW10396   0.410   2.675   4.975
 2201SOL    HW110397   0.496   2.687   5.025
 2201SOL    HW210398   0.368   2.588   5.002
 2202SOL     OW10399   1.274   2.248   4.986
 2202SOL    HW110400   1.295   2.322   5.050
 2202SOL    HW210401   1.185   2.265   4.943
 2203SOL     OW10402   0.064   3.426   5.055
 2203SOL    HW110403   0.018   3.508   5.021
 2203SOL    HW210404   0.162   3.445   5.064
 2204SOL     OW10405   0.367   2.962   4.225
 2204SOL    HW110406   0.360   3.045   4.169
 2204SOL    HW210407   0.371   2.882   4.165
 2205SOL     OW10408   0.566   2.399   4.589
 2205SOL    HW110409   0.578   2.465   4.515
 2205SOL    HW210410   0.612   2.433   4.672
 2206SOL     OW10411   1.252   3.210   4.112
 2206SOL    HW110412   1.302   3.287   4.152
 2206SOL    HW210413   1.157   3.212   4.144
 2207SOL     OW10414   1.582   2.501   4.196
 2207SOL    HW110415   1.551   2.562   4.269
 2207SOL    HW210416   1.632   2.553   4.127
 2208SOL     OW10417   0.354   3.372   5.053
 2208SOL    HW110418   0.333   3.328   4.966
 2208SOL    HW210419   0.451   3.398   5.056
 2209SOL     OW10420   0.402   2.613   5.322
 2209SOL    HW110421   0.470   2.668   5.275
 2209SOL    HW210422   0.442   2.525   5.349
 2210SOL     OW10423   1.013   1.967   5.494
 2210SOL    HW110424   1.019   2.052   5.442
 2210SOL    HW210425   1.045   1.891   5.437
 2211SOL     OW10426   0.504   1.912   5.464
 2211SOL    HW110427   0.462   1.855   5.394
 2211SOL    HW210428   0.438   1.981   5.496
 2212SOL     OW10429   0.573   2.732   4.753
 2212SOL    HW110430   0.617   2.821   4.744
 2212SOL    HW210431   0.510   2.732   4.830
 2213SOL     OW10432   1.360   2.724   4.769
 2213SOL    HW110433   1.285   2.724   4.703
 2213SOL    HW210434   1.397   2.632   4.778
 2214SOL     OW10435   1.209   2.387   3.999
 2214SOL    HW110436   1.222   2.303   4.053
 2214SOL    HW210437   1.180   2.461   4.059
 2215SOL     OW10438   0.307   2.075   4.955
 2215SOL    HW110439   0.284   2.112   5.045
 2215SOL    HW210440   0.277   1.980   4.949
 2216SOL     OW10441   0.037   3.172   5.006
 2216SOL    HW110442   0.090   3.123   5.074
 2216SOL    HW210443   0.059   3.270   5.011
 2217SOL     OW10444   0.732   2.496   4.788
 2217SOL    HW110445   0.791   2.470   4.712
 2217SOL    HW210446   0.704   2.592   4.777
 2218SOL     OW10447   1.728   2.797   5.578
 2218SOL    HW110448   1.682   2.790   5.489
 2218SOL    HW210449   1.666   2.841   5.644
 2219SOL     OW10450   1.622   2.229   4.098
 2219SOL    HW110451   1.624   2.153   4.162
 2219SOL    HW210452   1.574   2.306   4.138
 2220SOL     OW10453   1.023   2.628   4.690
 2220SOL    HW110454   1.038   2.649   4.786
 2220SOL    HW210455   0.993   2.533   4.681
 2221SOL     OW10456   0.980   3.435   5.424
 2221SOL    HW110457   0.960   3.479   5.336
 2221SOL    HW210458   1.019   3.344   5.408
 2222SOL     OW10459   1.859   3.380   5.329
 2222SOL    HW110460   1.873   3.407   5.234
 2222SOL    HW210461   1.942   3.402   5.382
 2223SOL     OW10462   0.350   2.760   5.528
 2223SOL    HW110463   0.426   2.804   5.576
 2223SOL    HW210464   0.385   2.713   5.446
 2224SOL     OW10465   1.540   2.136   3.849
 2224SOL    HW110466   1.479   2.061   3.872
 2224SOL    HW210467   1.562   2.188   3.932
 2225SOL     OW10468   1.303   2.700   3.766
 2225SOL    HW110469   1.337   2.607   3.781
 2225SOL    HW210470   1.321   2.727   3.671
 2226SOL     OW10471   0.319   2.672   4.673
 2226SOL    HW110472   0.412   2.708   4.678
 2226SOL    HW210473   0.313   2.587   4.725
 2227SOL     OW10474   0.339   2.371   4.730
 2227SOL    HW110475   0.287   2.288   4.713
 2227SOL    HW210476   0.416   2.376   4.666
 2228SOL     OW10477   1.160   2.069   5.201
 2228SOL    HW110478   1.160   2.133   5.278
 2228SOL    HW210479   1.188   2.117   5.118
 2229SOL     OW10480   0.008   3.188   3.924
 2229SOL    HW110481  -0.085   3.209   3.893
 2229SOL    HW210482   0.018   3.089   3.937
 2230SOL     OW10483   0.088   3.663   4.651
 2230SOL    HW110484   0.046   3.577   4.624
 2230SOL    HW210485   0.182   3.666   4.617
 2231SOL     OW10486   1.002   2.658   4.962
 2231SOL    HW110487   1.043   2.626   5.048
 2231SOL    HW210488   0.906   2.631   4.959
 2232SOL     OW10489   0.040   2.406   4.838
 2232SOL    HW110490   0.125   2.373   4.797
 2232SOL    HW210491   0.053   2.421   4.936
 2233SOL     OW10492   0.189   2.382   5.446
 2233SOL    HW110493   0.248   2.342   5.376
 2233SOL    HW210494   0.131   2.453   5.405
 2234SOL     OW10495   1.369   2.812   5.384
 2234SOL    HW110496   1.408   2.901   5.404
 2234SOL    HW210497   1.379   2.792   5.287
 2235SOL     OW10498   0.815   2.434   4.049
 2235SOL    HW110499   0.822   2.345   4.003
 2235SOL    HW210500   0.721   2.468   4.041
 2236SOL     OW10501   1.657   2.466   4.930
 2236SOL    HW110502   1.619   2.397   4.992
 2236SOL    HW210503   1.739   2.430   4.886
 2237SOL     OW10504   0.252   3.426   5.468
 2237SOL    HW110505   0.222   3.483   5.544
 2237SOL    HW210506   0.245   3.329   5.494
 2238SOL     OW10507   0.671   2.326   4.993
 2238SOL    HW110508   0.637   2.237   4.963
 2238SOL    HW210509   0.697   2.380   4.913
 2239SOL     OW10510   0.473   2.362   3.915
 2239SOL    HW110511   0.534   2.442   3.919
 2239SOL    HW210512   0.378   2.393   3.922
 2240SOL     OW10513   0.159   2.999   5.190
 2240SOL    HW110514   0.181   2.938   5.266
 2240SOL    HW210515   0.169   2.950   5.104
 2241SOL     OW10516   1.347   2.921   4.958
 2241SOL    HW110517   1.371   2.858   4.884
 2241SOL    HW210518   1.257   2.961   4.940
 2242SOL     OW10519   1.302   2.717   4.033
 2242SOL    HW110520   1.216   2.686   4.075
 2242SOL    HW210521   1.298   2.703   3.934
 2243SOL     OW10522   1.759   3.609   4.878
 2243SOL    HW110523   1.820   3.639   4.805
 2243SOL    HW210524   1.721   3.520   4.856
 2244SOL     OW10525   0.083   3.120   4.746
 2244SOL    HW110526   0.078   3.119   4.846
 2244SOL    HW210527   0.000   3.079   4.708
 2245SOL     OW10528   0.688   3.524   5.440
 2245SOL    HW110529   0.632   3.605   5.449
 2245SOL    HW210530   0.740   3.528   5.354
 2246SOL     OW10531   1.726   1.997   4.247
 2246SOL    HW110532   1.799   1.980   4.180
 2246SOL    HW210533   1.695   1.910   4.285
 2247SOL     OW10534   1.388   3.435   4.201
 2247SOL    HW110535   1.455   3.447   4.127
 2247SOL    HW210536   1.348   3.524   4.224
 2248SOL     OW10537   0.130   3.656   5.575
 2248SOL    HW110538   0.089   3.582   5.628
 2248SOL    HW210539   0.194   3.707   5.633
 2249SOL     OW10540   1.280   2.789   4.396
 2249SOL    HW110541   1.340   2.708   4.398
 2249SOL    HW210542   1.320   2.858   4.336
 2250SOL     OW10543   0.830   3.135   5.146
 2250SOL    HW110544   0.825   3.168   5.241
 2250SOL    HW210545   0.744   3.154   5.100
 2251SOL     OW10546   0.672   3.478   3.878
 2251SOL    HW110547   0.681   3.488   3.779
 2251SOL    HW210548   0.632   3.389   3.899
 2252SOL     OW10549   1.650   3.582   5.118
 2252SOL    HW110550   1.703   3.592   5.034
 2252SOL    HW210551   1.623   3.672   5.152
 2253SOL     OW10552   1.841   2.037   4.687
 2253SOL    HW110553   1.880   1.952   4.651
 2253SOL    HW210554   1.743   2.039   4.668
 2254SOL     OW10555   0.263   2.188   4.444
 2254SOL    HW110556   0.184   2.239   4.410
 2254SOL    HW210557   0.254   2.173   4.542
 2255SOL     OW10558   1.194   3.474   3.755
 2255SOL    HW110559   1.200   3.381   3.792
 2255SOL    HW210560   1.135   3.474   3.675
 2256SOL     OW10561   0.822   2.864   5.096
 2256SOL    HW110562   0.862   2.863   5.004
 2256SOL    HW210563   0.832   2.956   5.136
 2257SOL     OW10564   0.916   2.772   4.015
 2257SOL    HW110565   0.979   2.810   3.947
 2257SOL    HW210566   0.956   2.689   4.054
 2258SOL     OW10567   1.504   3.469   3.768
 2258SOL    HW110568   1.412   3.506   3.775
 2258SOL    HW210569   1.542   3.489   3.678
 2259SOL     OW10570   0.372   3.150   5.214
 2259SOL    HW110571   0.359   3.243   5.180
 2259SOL    HW210572   0.288   3.098   5.201
 2260SOL     OW10573   1.614   3.154   5.013
 2260SOL    HW110574   1.674   3.157   5.093
 2260SOL    HW210575   1.539   3.218   5.026
 2261SOL     OW10576   1.039   2.960   4.420
 2261SOL    HW110577   0.969   2.913   4.474
 2261SOL    HW210578   1.098   2.892   4.377
 2262SOL     OW10579   1.014   2.098   4.695
 2262SOL    HW110580   1.006   2.062   4.602
 2262SOL    HW210581   1.012   2.022   4.760
 2263SOL     OW10582   1.709   2.247   5.105
 2263SOL    HW110583   1.782   2.316   5.109
 2263SOL    HW210584   1.737   2.172   5.046
 2264SOL     OW10585   0.255   3.210   4.014
 2264SOL    HW110586   0.159   3.211   3.987
 2264SOL    HW210587   0.267   3.263   4.098
 2265SOL     OW10588   0.105   2.875   5.450
 2265SOL    HW110589   0.028   2.842   5.504
 2265SOL    HW210590   0.190   2.845   5.492
 2266SOL     OW10591   0.672   2.065   5.213
 2266SOL    HW110592   0.762   2.049   5.173
 2266SOL    HW210593   0.680   2.070   5.312
 2267SOL     OW10594   0.075   2.207   3.757
 2267SOL    HW110595  -0.017   2.179   3.728
 2267SOL    HW210596   0.106   2.284   3.701
 2268SOL     OW10597   1.440   2.718   5.122
 2268SOL    HW110598   1.383   2.770   5.059
 2268SOL    HW210599   1.536   2.730   5.098
 2269SOL     OW10600   0.072   2.028   4.042
 2269SOL    HW110601   0.055   2.111   3.988
 2269SOL    HW210602   0.162   1.991   4.020
 2270SOL     OW10603   1.183   3.197   3.843
 2270SOL    HW110604   1.084   3.186   3.845
 2270SOL    HW210605   1.217   3.212   3.936
 2271SOL     OW10606   0.613   2.704   5.155
 2271SOL    HW110607   0.669   2.785   5.138
 2271SOL    HW210608   0.672   2.624   5.158
 2272SOL     OW10609   1.493   3.629   4.683
 2272SOL    HW110610   1.526   3.693   4.614
 2272SOL    HW210611   1.559   3.623   4.758
 2273SOL     OW10612   0.716   2.427   5.432
 2273SOL    HW110613   0.735   2.492   5.506
 2273SOL    HW210614   0.776   2.347   5.441
 2274SOL     OW10615   1.450   3.082   5.357
 2274SOL    HW110616   1.441   3.072   5.456
 2274SOL    HW210617   1.546   3.075   5.331
 2275SOL     OW10618   0.390   3.603   5.284
 2275SOL    HW110619   0.299   3.644   5.282
 2275SOL    HW210620   0.383   3.509   5.316
 2276SOL     OW10621   1.674   2.745   4.978
 2276SOL    HW110622   1.647   2.656   4.941
 2276SOL    HW210623   1.675   2.813   4.905
 2277SOL     OW10624   1.225   2.187   4.173
 2277SOL    HW110625   1.290   2.113   4.162
 2277SOL    HW210626   1.245   2.237   4.257
 2278SOL     OW10627   0.594   2.607   4.376
 2278SOL    HW110628   0.644   2.692   4.357
 2278SOL    HW210629   0.506   2.609   4.328
 2279SOL     OW10630   1.777   2.204   5.366
 2279SOL    HW110631   1.760   2.235   5.272
 2279SOL    HW210632   1.693   2.167   5.404
 2280SOL     OW10633   1.730   2.796   5.241
 2280SOL    HW110634   1.768   2.887   5.256
 2280SOL    HW210635   1.722   2.779   5.142
 2281SOL     OW10636   0.859   3.236   3.740
 2281SOL    HW110637   0.813   3.251   3.828
 2281SOL    HW210638   0.903   3.321   3.710
 2282SOL     OW10639   0.859   2.818   4.585
 2282SOL    HW110640   0.913   2.749   4.633
 2282SOL    HW210641   0.827   2.887   4.651
 2283SOL     OW10642   1.083   2.846   3.811
 2283SOL    HW110643   1.060   2.899   3.729
 2283SOL    HW210644   1.164   2.790   3.792
 2284SOL     OW10645   1.861   3.431   4.575
 2284SOL    HW110646   1.790   3.419   4.505
 2284SOL    HW210647   1.862   3.352   4.635
 2285SOL     OW10648   0.221   3.176   5.568
 2285SOL    HW110649   0.156   3.103   5.547
 2285SOL    HW210650   0.225   3.190   5.666
 2286SOL     OW10651   0.079   3.102   4.377
 2286SOL    HW110652   0.078   3.055   4.465
 2286SOL    HW210653   0.161   3.074   4.326
 2287SOL     OW10654   0.672   3.253   5.348
 2287SOL    HW110655   0.594   3.203   5.386
 2287SOL    HW210656   0.669   3.348   5.379
 2288SOL     OW10657   1.824   2.054   4.951
 2288SOL    HW110658   1.820   1.964   4.995
 2288SOL    HW210659   1.827   2.043   4.852
 2289SOL     OW10660   0.428   2.286   4.244
 2289SOL    HW110661   0.458   2.214   4.182
 2289SOL    HW210662   0.389   2.246   4.327
 2290SOL     OW10663   1.705   3.349   4.828
 2290SOL    HW110664   1.612   3.324   4.801
 2290SOL    HW210665   1.731   3.299   4.910
 2291SOL     OW10666   0.317   2.409   5.004
 2291SOL    HW110667   0.355   2.350   5.076
 2291SOL    HW210668   0.357   2.383   4.916
 2292SOL     OW10669   1.424   2.076   4.836
 2292SOL    HW110670   1.476   2.011   4.891
 2292SOL    HW210671   1.375   2.139   4.897
 2293SOL     OW10672   1.001   1.896   4.878
 2293SOL    HW110673   0.938   1.824   4.847
 2293SOL    HW210674   1.094   1.860   4.878
 2294SOL     OW10675   0.770   3.192   4.025
 2294SOL    HW110676   0.724   3.105   4.042
 2294SOL    HW210677   0.861   3.189   4.066
 2295SOL     OW10678   1.352   1.914   3.892
 2295SOL    HW110679   1.387   1.873   3.808
 2295SOL    HW210680   1.262   1.876   3.912
 2296SOL     OW10681   1.300   2.315   4.415
 2296SOL    HW110682   1.241   2.395   4.419
 2296SOL    HW210683   1.315   2.280   4.508
 2297SOL     OW10684   1.593   2.083   4.606
 2297SOL    HW110685   1.509   2.082   4.660
 2297SOL    HW210686   1.595   2.166   4.550
 2298SOL     OW10687   0.039   2.939   4.024
 2298SOL    HW110688   0.138   2.928   4.015
 2298SOL    HW210689  -0.001   2.853   4.056
 2299SOL     OW10690   0.875   3.508   4.061
 2299SOL    HW110691   0.798   3.473   4.007
 2299SOL    HW210692   0.843   3.579   4.123
 2300SOL     OW10693   0.230   2.490   5.699
 2300SOL    HW110694   0.137   2.488   5.736
 2300SOL    HW210695   0.231   2.451   5.607
 2301SOL     OW10696   0.225   2.137   6.582
 2301SOL    HW110697   0.260   2.120   6.674
 2301SOL    HW210698   0.137   2.092   6.570
 2302SOL     OW10699   0.019   2.230   6.233
 2302SOL    HW110700  -0.063   2.273   6.272
 2302SOL    HW210701  -0.009   2.157   6.170
 2303SOL     OW10702   1.555   3.373   6.289
 2303SOL    HW110703   1.498   3.357   6.370
 2303SOL    HW210704   1.496   3.383   6.209
 2304SOL     OW10705   1.135   2.565   6.303
 2304SOL    HW110706   1.192   2.643   6.278
 2304SOL    HW210707   1.075   2.591   6.379
 2305SOL     OW10708   1.755   2.469   5.817
 2305SOL    HW110709   1.743   2.456   5.718
 2305SOL    HW210710   1.725   2.388   5.866
 2306SOL     OW10711   0.850   2.660   7.409
 2306SOL    HW110712   0.846   2.736   7.474
 2306SOL    HW210713   0.872   2.696   7.318
 2307SOL     OW10714   0.685   2.874   6.251
 2307SOL    HW110715   0.754   2.858   6.321
 2307SOL    HW210716   0.612   2.931   6.289
 2308SOL     OW10717   0.686   3.023   7.389
 2308SOL    HW110718   0.746   3.102   7.403
 2308SOL    HW210719   0.600   3.054   7.348
 2309SOL     OW10720   0.438   2.254   7.085
 2309SOL    HW110721   0.520   2.198   7.094
 2309SOL    HW210722   0.357   2.196   7.089
 2310SOL     OW10723   1.603   2.309   6.323
 2310SOL    HW110724   1.529   2.355   6.273
 2310SOL    HW210725   1.654   2.377   6.376
 2311SOL     OW10726   0.231   3.575   6.069
 2311SOL    HW110727   0.265   3.652   6.123
 2311SOL    HW210728   0.275   3.575   5.979
 2312SOL     OW10729   1.127   3.203   7.276
 2312SOL    HW110730   1.174   3.203   7.364
 2312SOL    HW210731   1.079   3.116   7.265
 2313SOL     OW10732   0.230   3.296   6.124
 2313SOL    HW110733   0.204   3.392   6.124
 2313SOL    HW210734   0.159   3.242   6.169
 2314SOL     OW10735   0.620   3.648   7.025
 2314SOL    HW110736   0.528   3.631   7.060
 2314SOL    HW210737   0.648   3.740   7.051
 2315SOL     OW10738   0.606   2.826   5.709
 2315SOL    HW110739   0.613   2.910   5.655
 2315SOL    HW210740   0.652   2.839   5.797
 2316SOL     OW10741   0.122   2.505   6.149
 2316SOL    HW110742   0.077   2.417   6.166
 2316SOL    HW210743   0.121   2.559   6.233
 2317SOL     OW10744   1.842   3.629   5.945
 2317SOL    HW110745   1.896   3.600   6.025
 2317SOL    HW210746   1.872   3.719   5.916
 2318SOL     OW10747   0.027   3.458   5.703
 2318SOL    HW110748   0.008   3.362   5.724
 2318SOL    HW210749  -0.006   3.516   5.778
 2319SOL     OW10750   1.689   2.784   6.198
 2319SOL    HW110751   1.784   2.755   6.206
 2319SOL    HW210752   1.681   2.849   6.123
 2320SOL     OW10753   1.641   2.970   6.018
 2320SOL    HW110754   1.727   2.972   5.966
 2320SOL    HW210755   1.655   3.017   6.106
 2321SOL     OW10756   0.113   2.599   7.183
 2321SOL    HW110757   0.201   2.586   7.228
 2321SOL    HW210758   0.100   2.696   7.161
 2322SOL     OW10759   1.293   3.090   7.009
 2322SOL    HW110760   1.330   3.017   6.951
 2322SOL    HW210761   1.345   3.095   7.094
 2323SOL     OW10762   0.809   1.866   6.088
 2323SOL    HW110763   0.849   1.957   6.079
 2323SOL    HW210764   0.709   1.874   6.094
 2324SOL     OW10765   1.525   2.861   5.776
 2324SOL    HW110766   1.462   2.785   5.789
 2324SOL    HW210767   1.573   2.879   5.862
 2325SOL     OW10768   0.317   2.113   7.387
 2325SOL    HW110769   0.388   2.184   7.393
 2325SOL    HW210770   0.229   2.152   7.415
 2326SOL     OW10771   1.466   3.279   6.539
 2326SOL    HW110772   1.407   3.285   6.619
 2326SOL    HW210773   1.451   3.191   6.493
 2327SOL     OW10774   1.667   3.576   6.158
 2327SOL    HW110775   1.626   3.553   6.070
 2327SOL    HW210776   1.649   3.502   6.223
 2328SOL     OW10777   0.598   2.591   5.856
 2328SOL    HW110778   0.622   2.660   5.788
 2328SOL    HW210779   0.520   2.624   5.910
 2329SOL     OW10780   1.281   2.207   6.530
 2329SOL    HW110781   1.195   2.157   6.517
 2329SOL    HW210782   1.343   2.153   6.586
 2330SOL     OW10783   1.576   3.524   5.893
 2330SOL    HW110784   1.665   3.570   5.896
 2330SOL    HW210785   1.555   3.500   5.798
 2331SOL     OW10786   0.807   2.467   7.051
 2331SOL    HW110787   0.760   2.464   7.140
 2331SOL    HW210788   0.756   2.412   6.985
 2332SOL     OW10789   1.394   2.331   7.260
 2332SOL    HW110790   1.374   2.374   7.348
 2332SOL    HW210791   1.472   2.269   7.269
 2333SOL     OW10792   0.973   2.752   7.158
 2333SOL    HW110793   1.019   2.668   7.129
 2333SOL    HW210794   0.917   2.786   7.083
 2334SOL     OW10795   0.991   2.272   6.828
 2334SOL    HW110796   0.914   2.306   6.882
 2334SOL    HW210797   0.957   2.221   6.749
 2335SOL     OW10798   1.041   2.563   6.015
 2335SOL    HW110799   1.067   2.559   6.111
 2335SOL    HW210800   0.956   2.512   6.001
 2336SOL     OW10801   0.130   3.683   7.157
 2336SOL    HW110802   0.120   3.668   7.256
 2336SOL    HW210803   0.044   3.719   7.121
 2337SOL     OW10804   1.719   2.447   7.417
 2337SOL    HW110805   1.693   2.536   7.381
 2337SOL    HW210806   1.717   2.379   7.344
 2338SOL     OW10807   1.362   3.006   6.131
 2338SOL    HW110808   1.445   2.977   6.083
 2338SOL    HW210809   1.313   3.073   6.075
 2339SOL     OW10810   0.550   2.058   6.471
 2339SOL    HW110811   0.545   2.053   6.571
 2339SOL    HW210812   0.552   2.154   6.442
 2340SOL     OW10813   0.351   3.663   6.439
 2340SOL    HW110814   0.401   3.577   6.445
 2340SOL    HW210815   0.416   3.740   6.436
 2341SOL     OW10816   1.795   2.928   6.459
 2341SOL    HW110817   1.733   2.913   6.383
 2341SOL    HW210818   1.743   2.939   6.544
 2342SOL     OW10819   0.321   2.805   5.828
 2342SOL    HW110820   0.403   2.844   5.786
 2342SOL    HW210821   0.294   2.723   5.779
 2343SOL     OW10822   1.458   2.597   6.314
 2343SOL    HW110823   1.453   2.532   6.389
 2343SOL    HW210824   1.538   2.656   6.327
 2344SOL     OW10825   0.461   3.128   7.313
 2344SOL    HW110826   0.411   3.129   7.227
 2344SOL    HW210827   0.398   3.110   7.389
 2345SOL     OW10828   0.202   2.147   7.084
 2345SOL    HW110829   0.122   2.207   7.071
 2345SOL    HW210830   0.192   2.098   7.170
 2346SOL     OW10831   1.632   3.239   5.667
 2346SOL    HW110832   1.600   3.333   5.657
 2346SOL    HW210833   1.556   3.176   5.655
 2347SOL     OW10834   0.464   3.605   5.909
 2347SOL    HW110835   0.497   3.644   5.995
 2347SOL    HW210836   0.540   3.598   5.844
 2348SOL     OW10837   1.400   1.969   6.012
 2348SOL    HW110838   1.376   1.932   5.922
 2348SOL    HW210839   1.499   1.985   6.016
 2349SOL     OW10840   0.249   3.647   6.827
 2349SOL    HW110841   0.306   3.582   6.877
 2349SOL    HW210842   0.233   3.614   6.734
 2350SOL     OW10843   0.940   3.560   6.490
 2350SOL    HW110844   1.020   3.503   6.511
 2350SOL    HW210845   0.891   3.520   6.413
 2351SOL     OW10846   0.382   2.562   6.066
 2351SOL    HW110847   0.427   2.472   6.063
 2351SOL    HW210848   0.288   2.551   6.099
 2352SOL     OW10849   1.547   2.084   7.315
 2352SOL    HW110850   1.542   2.121   7.407
 2352SOL    HW210851   1.475   2.015   7.303
 2353SOL     OW10852   0.614   1.984   5.703
 2353SOL    HW110853   0.712   1.962   5.710
 2353SOL    HW210854   0.583   1.967   5.610
 2354SOL     OW10855   0.781   2.126   7.335
 2354SOL    HW110856   0.848   2.065   7.378
 2354SOL    HW210857   0.708   2.145   7.400
 2355SOL     OW10858   0.888   3.376   6.781
 2355SOL    HW110859   0.865   3.351   6.687
 2355SOL    HW210860   0.949   3.307   6.820
 2356SOL     OW10861   1.351   2.452   7.019
 2356SOL    HW110862   1.379   2.409   7.104
 2356SOL    HW210863   1.376   2.548   7.020
 2357SOL     OW10864   0.922   2.365   6.485
 2357SOL    HW110865   0.897   2.356   6.389
 2357SOL    HW210866   0.970   2.283   6.516
 2358SOL     OW10867   0.539   1.926   6.098
 2358SOL    HW110868   0.458   1.927   6.156
 2358SOL    HW210869   0.542   2.009   6.043
 2359SOL     OW10870   1.434   3.050   5.627
 2359SOL    HW110871   1.466   2.974   5.684
 2359SOL    HW210872   1.342   3.077   5.657
 2360SOL     OW10873   0.297   1.897   5.757
 2360SOL    HW110874   0.346   1.981   5.736
 2360SOL    HW210875   0.359   1.832   5.802
 2361SOL     OW10876   1.076   2.545   7.050
 2361SOL    HW110877   0.996   2.484   7.053
 2361SOL    HW210878   1.157   2.492   7.026
 2362SOL     OW10879   1.227   3.432   6.379
 2362SOL    HW110880   1.248   3.506   6.314
 2362SOL    HW210881   1.295   3.432   6.452
 2363SOL     OW10882   0.459   3.014   6.327
 2363SOL    HW110883   0.388   2.987   6.392
 2363SOL    HW210884   0.433   2.986   6.234
 2364SOL     OW10885   0.078   2.418   6.972
 2364SOL    HW110886   0.170   2.417   6.931
 2364SOL    HW210887   0.072   2.492   7.039
 2365SOL     OW10888   0.561   2.084   6.733
 2365SOL    HW110889   0.599   2.000   6.770
 2365SOL    HW210890   0.473   2.103   6.777
 2366SOL     OW10891   0.866   2.316   6.228
 2366SOL    HW110892   0.834   2.388   6.166
 2366SOL    HW210893   0.890   2.235   6.175
 2367SOL     OW10894   1.017   1.901   6.339
 2367SOL    HW110895   0.945   1.906   6.270
 2367SOL    HW210896   0.993   1.832   6.408
 2368SOL     OW10897   1.429   3.035   6.453
 2368SOL    HW110898   1.374   2.951   6.446
 2368SOL    HW210899   1.455   3.064   6.361
 2369SOL     OW10900   1.466   2.452   6.578
 2369SOL    HW110901   1.436   2.357   6.585
 2369SOL    HW210902   1.539   2.468   6.644
 2370SOL     OW10903   1.857   2.695   5.963
 2370SOL    HW110904   1.899   2.631   6.027
 2370SOL    HW210905   1.819   2.644   5.885
 2371SOL     OW10906   0.488   3.247   5.760
 2371SOL    HW110907   0.401   3.232   5.807
 2371SOL    HW210908   0.471   3.273   5.665
 2372SOL     OW10909   1.664   3.142   6.243
 2372SOL    HW110910   1.763   3.150   6.257
 2372SOL    HW210911   1.619   3.226   6.274
 2373SOL     OW10912   0.527   2.118   5.914
 2373SOL    HW110913   0.554   2.059   5.839
 2373SOL    HW210914   0.527   2.213   5.883
 2374SOL     OW10915   1.754   3.085   7.174
 2374SOL    HW110916   1.845   3.046   7.161
 2374SOL    HW210917   1.762   3.181   7.198
 2375SOL     OW10918   1.592   3.491   7.211
 2375SOL    HW110919   1.619   3.525   7.121
 2375SOL    HW210920   1.671   3.453   7.257
 2376SOL     OW10921   1.111   3.057   6.686
 2376SOL    HW110922   1.071   3.101   6.767
 2376SOL    HW210923   1.070   3.094   6.603
 2377SOL     OW10924   1.638   2.961   6.665
 2377SOL    HW110925   1.643   3.042   6.724
 2377SOL    HW210926   1.552   2.963   6.614
 2378SOL     OW10927   0.915   1.951   6.988
 2378SOL    HW110928   0.940   1.931   6.893
 2378SOL    HW210929   0.987   2.007   7.030
 2379SOL     OW10930   0.980   2.978   7.305
 2379SOL    HW110931   0.881   2.984   7.315
 2379SOL    HW210932   1.003   2.898   7.249
 2380SOL     OW10933   0.705   2.912   5.954
 2380SOL    HW110934   0.691   2.919   6.053
 2380SOL    HW210935   0.789   2.861   5.936
 2381SOL     OW10936   1.274   2.248   6.848
 2381SOL    HW110937   1.295   2.322   6.912
 2381SOL    HW210938   1.185   2.265   6.805
 2382SOL     OW10939   0.064   3.426   6.917
 2382SOL    HW110940   0.018   3.508   6.883
 2382SOL    HW210941   0.162   3.445   6.926
 2383SOL     OW10942   0.367   2.962   6.087
 2383SOL    HW110943   0.360   3.045   6.031
 2383SOL    HW210944   0.371   2.882   6.027
 2384SOL     OW10945   0.566   2.399   6.451
 2384SOL    HW110946   0.578   2.465   6.377
 2384SOL    HW210947   0.612   2.433   6.534
 2385SOL     OW10948   1.582   2.501   6.058
 2385SOL    HW110949   1.551   2.562   6.131
 2385SOL    HW210950   1.632   2.553   5.989
 2386SOL     OW10951   0.354   3.372   6.915
 2386SOL    HW110952   0.333   3.328   6.828
 2386SOL    HW210953   0.451   3.398   6.918
 2387SOL     OW10954   0.402   2.613   7.184
 2387SOL    HW110955   0.470   2.668   7.137
 2387SOL    HW210956   0.442   2.525   7.211
 2388SOL     OW10957   1.587   2.641   7.256
 2388SOL    HW110958   1.495   2.679   7.251
 2388SOL    HW210959   1.647   2.688   7.191
 2389SOL     OW10960   1.013   1.967   7.356
 2389SOL    HW110961   1.019   2.052   7.304
 2389SOL    HW210962   1.045   1.891   7.299
 2390SOL     OW10963   0.504   1.912   7.326
 2390SOL    HW110964   0.462   1.855   7.256
 2390SOL    HW210965   0.438   1.981   7.358
 2391SOL     OW10966   0.573   2.732   6.615
 2391SOL    HW110967   0.617   2.821   6.606
 2391SOL    HW210968   0.510   2.732   6.692
 2392SOL     OW10969   1.360   2.724   6.631
 2392SOL    HW110970   1.285   2.724   6.565
 2392SOL    HW210971   1.397   2.632   6.640
 2393SOL     OW10972   0.307   2.075   6.817
 2393SOL    HW110973   0.284   2.112   6.907
 2393SOL    HW210974   0.277   1.980   6.811
 2394SOL     OW10975   0.037   3.172   6.868
 2394SOL    HW110976   0.090   3.123   6.936
 2394SOL    HW210977   0.059   3.270   6.873
 2395SOL     OW10978   0.732   2.496   6.650
 2395SOL    HW110979   0.791   2.470   6.574
 2395SOL    HW210980   0.704   2.592   6.639
 2396SOL     OW10981   1.728   2.797   7.440
 2396SOL    HW110982   1.682   2.790   7.351
 2396SOL    HW210983   1.666   2.841   7.506
 2397SOL     OW10984   0.307   1.925   6.204
 2397SOL    HW110985   0.296   2.019   6.237
 2397SOL    HW210986   0.302   1.862   6.281
 2398SOL     OW10987   1.622   2.229   5.960
 2398SOL    HW110988   1.624   2.153   6.024
 2398SOL    HW210989   1.574   2.306   6.000
 2399SOL     OW10990   1.023   2.628   6.552
 2399SOL    HW110991   1.038   2.649   6.648
 2399SOL    HW210992   0.993   2.533   6.543
 2400SOL     OW10993   0.980   3.435   7.286
 2400SOL    HW110994   0.960   3.479   7.198
 2400SOL    HW210995   1.019   3.344   7.270
 2401SOL     OW10996   1.859   3.380   7.191
 2401SOL    HW110997   1.873   3.407   7.096
 2401SOL    HW210998   1.942   3.402   7.244
 2402SOL     OW10999   0.350   2.760   7.390
 2402SOL    HW111000   0.426   2.804   7.438
 2402SOL    HW211001   0.385   2.713   7.308
 2403SOL     OW11002   1.540   2.136   5.711
 2403SOL    HW111003   1.479   2.061   5.734
 2403SOL    HW211004   1.562   2.188   5.794
 2404SOL     OW11005   1.068   3.195   6.435
 2404SOL    HW111006   1.075   3.111   6.380
 2404SOL    HW211007   1.130   3.264   6.399
 2405SOL     OW11008   0.319   2.672   6.535
 2405SOL    HW111009   0.412   2.708   6.540
 2405SOL    HW211010   0.313   2.587   6.587
 2406SOL     OW11011   0.339   2.371   6.592
 2406SOL    HW111012   0.287   2.288   6.575
 2406SOL    HW211013   0.416   2.376   6.528
 2407SOL     OW11014   1.138   2.242   7.264
 2407SOL    HW111015   1.093   2.305   7.328
 2407SOL    HW211016   1.231   2.273   7.247
 2408SOL     OW11017   1.160   2.069   7.063
 2408SOL    HW111018   1.160   2.133   7.140
 2408SOL    HW211019   1.188   2.117   6.980
 2409SOL     OW11020   0.088   3.663   6.513
 2409SOL    HW111021   0.046   3.577   6.486
 2409SOL    HW211022   0.182   3.666   6.479
 2410SOL     OW11023   1.002   2.658   6.824
 2410SOL    HW111024   1.043   2.626   6.910
 2410SOL    HW211025   0.906   2.631   6.821
 2411SOL     OW11026   0.040   2.406   6.700
 2411SOL    HW111027   0.125   2.373   6.659
 2411SOL    HW211028   0.053   2.421   6.798
 2412SOL     OW11029   0.189   2.382   7.308
 2412SOL    HW111030   0.248   2.342   7.238
 2412SOL    HW211031   0.131   2.453   7.267
 2413SOL     OW11032   1.369   2.812   7.246
 2413SOL    HW111033   1.408   2.901   7.266
 2413SOL    HW211034   1.379   2.792   7.149
 2414SOL     OW11035   1.657   2.466   6.792
 2414SOL    HW111036   1.619   2.397   6.854
 2414SOL    HW211037   1.739   2.430   6.748
 2415SOL     OW11038   0.671   2.326   6.855
 2415SOL    HW111039   0.637   2.237   6.825
 2415SOL    HW211040   0.697   2.380   6.775
 2416SOL     OW11041   0.930   3.540   7.051
 2416SOL    HW111042   0.906   3.522   6.956
 2416SOL    HW211043   0.960   3.634   7.061
 2417SOL     OW11044   0.473   2.362   5.777
 2417SOL    HW111045   0.534   2.442   5.781
 2417SOL    HW211046   0.378   2.393   5.784
 2418SOL     OW11047   1.347   2.921   6.820
 2418SOL    HW111048   1.371   2.858   6.746
 2418SOL    HW211049   1.257   2.961   6.802
 2419SOL     OW11050   1.302   2.717   5.895
 2419SOL    HW111051   1.216   2.686   5.937
 2419SOL    HW211052   1.298   2.703   5.796
 2420SOL     OW11053   1.759   3.609   6.740
 2420SOL    HW111054   1.820   3.639   6.667
 2420SOL    HW211055   1.721   3.520   6.718
 2421SOL     OW11056   0.083   3.120   6.608
 2421SOL    HW111057   0.078   3.119   6.708
 2421SOL    HW211058   0.000   3.079   6.570
 2422SOL     OW11059   0.688   3.524   7.302
 2422SOL    HW111060   0.632   3.605   7.311
 2422SOL    HW211061   0.740   3.528   7.216
 2423SOL     OW11062   1.726   1.997   6.109
 2423SOL    HW111063   1.799   1.980   6.042
 2423SOL    HW211064   1.695   1.910   6.147
 2424SOL     OW11065   1.280   2.789   6.258
 2424SOL    HW111066   1.340   2.708   6.260
 2424SOL    HW211067   1.320   2.858   6.198
 2425SOL     OW11068   0.830   3.135   7.008
 2425SOL    HW111069   0.825   3.168   7.103
 2425SOL    HW211070   0.744   3.154   6.962
 2426SOL     OW11071   0.672   3.478   5.740
 2426SOL    HW111072   0.681   3.488   5.641
 2426SOL    HW211073   0.632   3.389   5.761
 2427SOL     OW11074   1.650   3.582   6.980
 2427SOL    HW111075   1.703   3.592   6.896
 2427SOL    HW211076   1.623   3.672   7.014
 2428SOL     OW11077   1.841   2.037   6.549
 2428SOL    HW111078   1.880   1.952   6.513
 2428SOL    HW211079   1.743   2.039   6.530
 2429SOL     OW11080   0.263   2.188   6.306
 2429SOL    HW111081   0.184   2.239   6.272
 2429SOL    HW211082   0.254   2.173   6.404
 2430SOL     OW11083   0.916   2.772   5.877
 2430SOL    HW111084   0.979   2.810   5.809
 2430SOL    HW211085   0.956   2.689   5.916
 2431SOL     OW11086   1.504   3.469   5.630
 2431SOL    HW111087   1.412   3.506   5.637
 2431SOL    HW211088   1.542   3.489   5.540
 2432SOL     OW11089   1.039   2.960   6.282
 2432SOL    HW111090   0.969   2.913   6.336
 2432SOL    HW211091   1.098   2.892   6.239
 2433SOL     OW11092   1.014   2.098   6.557
 2433SOL    HW111093   1.006   2.062   6.464
 2433SOL    HW211094   1.012   2.022   6.622
 2434SOL     OW11095   0.590   3.349   6.077
 2434SOL    HW111096   0.632   3.291   6.007
 2434SOL    HW211097   0.546   3.428   6.033
 2435SOL     OW11098   1.709   2.247   6.967
 2435SOL    HW111099   1.782   2.316   6.971
 2435SOL    HW211100   1.737   2.172   6.908
 2436SOL     OW11101   0.255   3.210   5.876
 2436SOL    HW111102   0.159   3.211   5.849
 2436SOL    HW211103   0.267   3.263   5.960
 2437SOL     OW11104   0.105   2.875   7.312
 2437SOL    HW111105   0.028   2.842   7.366
 2437SOL    HW211106   0.190   2.845   7.354
 2438SOL     OW11107   0.672   2.065   7.075
 2438SOL    HW111108   0.762   2.049   7.035
 2438SOL    HW211109   0.680   2.070   7.174
 2439SOL     OW11110   0.075   2.207   5.619
 2439SOL    HW111111  -0.017   2.179   5.590
 2439SOL    HW211112   0.106   2.284   5.563
 2440SOL     OW11113   1.440   2.718   6.984
 2440SOL    HW111114   1.383   2.770   6.921
 2440SOL    HW211115   1.536   2.730   6.960
 2441SOL     OW11116   0.072   2.028   5.904
 2441SOL    HW111117   0.055   2.111   5.850
 2441SOL    HW211118   0.162   1.991   5.882
 2442SOL     OW11119   1.183   3.197   5.705
 2442SOL    HW111120   1.084   3.186   5.707
 2442SOL    HW211121   1.217   3.212   5.798
 2443SOL     OW11122   1.493   3.629   6.545
 2443SOL    HW111123   1.526   3.693   6.476
 2443SOL    HW211124   1.559   3.623   6.620
 2444SOL     OW11125   0.716   2.427   7.294
 2444SOL    HW111126   0.735   2.492   7.368
 2444SOL    HW211127   0.776   2.347   7.303
 2445SOL     OW11128   1.450   3.082   7.219
 2445SOL    HW111129   1.441   3.072   7.318
 2445SOL    HW211130   1.546   3.075   7.193
 2446SOL     OW11131   0.390   3.603   7.146
 2446SOL    HW111132   0.299   3.644   7.144
 2446SOL    HW211133   0.383   3.509   7.178
 2447SOL     OW11134   1.674   2.745   6.840
 2447SOL    HW111135   1.647   2.656   6.803
 2447SOL    HW211136   1.675   2.813   6.767
 2448SOL     OW11137   0.594   2.607   6.238
 2448SOL    HW111138   0.644   2.692   6.219
 2448SOL    HW211139   0.506   2.609   6.190
 2449SOL     OW11140   1.730   2.796   7.103
 2449SOL    HW111141   1.768   2.887   7.118
 2449SOL    HW211142   1.722   2.779   7.004
 2450SOL     OW11143   0.859   3.236   5.602
 2450SOL    HW111144   0.813   3.251   5.690
 2450SOL    HW211145   0.903   3.321   5.572
 2451SOL     OW11146   0.661   3.652   6.539
 2451SOL    HW111147   0.615   3.740   6.526
 2451SOL    HW211148   0.760   3.664   6.532
 2452SOL     OW11149   0.859   2.818   6.447
 2452SOL    HW111150   0.913   2.749   6.495
 2452SOL    HW211151   0.827   2.887   6.513
 2453SOL     OW11152   1.083   2.846   5.673
 2453SOL    HW111153   1.060   2.899   5.591
 2453SOL    HW211154   1.164   2.790   5.654
 2454SOL     OW11155   1.861   3.431   6.437
 2454SOL    HW111156   1.790   3.419   6.367
 2454SOL    HW211157   1.862   3.352   6.497
 2455SOL     OW11158   0.221   3.176   7.430
 2455SOL    HW111159   0.156   3.103   7.409
 2455SOL    HW211160   0.225   3.190   7.528
 2456SOL     OW11161   0.079   3.102   6.239
 2456SOL    HW111162   0.078   3.055   6.327
 2456SOL    HW211163   0.161   3.074   6.188
 2457SOL     OW11164   0.672   3.253   7.210
 2457SOL    HW111165   0.594   3.203   7.248
 2457SOL    HW211166   0.669   3.348   7.241
 2458SOL     OW11167   1.824   2.054   6.813
 2458SOL    HW111168   1.820   1.964   6.857
 2458SOL    HW211169   1.827   2.043   6.714
 2459SOL     OW11170   0.428   2.286   6.106
 2459SOL    HW111171   0.458   2.214   6.044
 2459SOL    HW211172   0.389   2.246   6.189
 2460SOL     OW11173   1.705   3.349   6.690
 2460SOL    HW111174   1.612   3.324   6.663
 2460SOL    HW211175   1.731   3.299   6.772
 2461SOL     OW11176   0.317   2.409   6.866
 2461SOL    HW111177   0.355   2.350   6.938
 2461SOL    HW211178   0.357   2.383   6.778
 2462SOL     OW11179   1.424   2.076   6.698
 2462SOL    HW111180   1.476   2.011   6.753
 2462SOL    HW211181   1.375   2.139   6.759
 2463SOL     OW11182   1.001   1.896   6.740
 2463SOL    HW111183   0.938   1.824   6.709
 2463SOL    HW211184   1.094   1.860   6.740
 2464SOL     OW11185   0.770   3.192   5.887
 2464SOL    HW111186   0.724   3.105   5.904
 2464SOL    HW211187   0.861   3.189   5.928
 2465SOL     OW11188   0.618   3.429   6.870
 2465SOL    HW111189   0.613   3.511   6.927
 2465SOL    HW211190   0.707   3.426   6.825
 2466SOL     OW11191   1.352   1.914   5.754
 2466SOL    HW111192   1.387   1.873   5.670
 2466SOL    HW211193   1.262   1.876   5.774
 2467SOL     OW11194   1.300   2.315   6.277
 2467SOL    HW111195   1.241   2.395   6.281
 2467SOL    HW211196   1.315   2.280   6.370
 2468SOL     OW11197   1.593   2.083   6.468
 2468SOL    HW111198   1.509   2.082   6.522
 2468SOL    HW211199   1.595   2.166   6.412
 2469SOL     OW11200   0.039   2.939   5.886
 2469SOL    HW111201   0.138   2.928   5.877
 2469SOL    HW211202  -0.001   2.853   5.918
 2470SOL     OW11203   0.875   3.508   5.923
 2470SOL    HW111204   0.798   3.473   5.869
 2470SOL    HW211205   0.843   3.579   5.985
 2471SOL     OW11206   0.230   2.490   7.561
 2471SOL    HW111207   0.137   2.488   7.598
 2471SOL    HW211208   0.231   2.451   7.469
 2472SOL     OW11209   0.225   2.137   8.444
 2472SOL    HW111210   0.260   2.120   8.536
 2472SOL    HW211211   0.137   2.092   8.432
 2473SOL     OW11212   0.019   2.230   8.095
 2473SOL    HW111213  -0.063   2.273   8.134
 2473SOL    HW211214  -0.009   2.157   8.032
 2474SOL     OW11215   1.555   3.373   8.151
 2474SOL    HW111216   1.498   3.357   8.232
 2474SOL    HW211217   1.496   3.383   8.071
 2475SOL     OW11218   1.135   2.565   8.165
 2475SOL    HW111219   1.192   2.643   8.140
 2475SOL    HW211220   1.075   2.591   8.241
 2476SOL     OW11221   1.755   2.469   7.679
 2476SOL    HW111222   1.743   2.456   7.580
 2476SOL    HW211223   1.725   2.388   7.728
 2477SOL     OW11224   0.768   3.006   8.471
 2477SOL    HW111225   0.690   3.023   8.531
 2477SOL    HW211226   0.802   3.093   8.435
 2478SOL     OW11227   0.850   2.660   9.271
 2478SOL    HW111228   0.846   2.736   9.336
 2478SOL    HW211229   0.872   2.696   9.180
 2479SOL     OW11230   0.685   2.874   8.113
 2479SOL    HW111231   0.754   2.858   8.183
 2479SOL    HW211232   0.612   2.931   8.151
 2480SOL     OW11233   0.686   3.023   9.251
 2480SOL    HW111234   0.746   3.102   9.265
 2480SOL    HW211235   0.600   3.054   9.210
 2481SOL     OW11236   1.460   3.367   8.787
 2481SOL    HW111237   1.484   3.461   8.813
 2481SOL    HW211238   1.444   3.313   8.869
 2482SOL     OW11239   0.438   2.254   8.947
 2482SOL    HW111240   0.520   2.198   8.956
 2482SOL    HW211241   0.357   2.196   8.951
 2483SOL     OW11242   1.603   2.309   8.185
 2483SOL    HW111243   1.529   2.355   8.135
 2483SOL    HW211244   1.654   2.377   8.238
 2484SOL     OW11245   0.230   3.296   7.986
 2484SOL    HW111246   0.204   3.392   7.986
 2484SOL    HW211247   0.159   3.242   8.031
 2485SOL     OW11248   0.606   2.826   7.571
 2485SOL    HW111249   0.613   2.910   7.517
 2485SOL    HW211250   0.652   2.839   7.659
 2486SOL     OW11251   1.594   1.976   8.928
 2486SOL    HW111252   1.576   2.043   8.856
 2486SOL    HW211253   1.591   2.022   9.017
 2487SOL     OW11254   0.122   2.505   8.011
 2487SOL    HW111255   0.077   2.417   8.028
 2487SOL    HW211256   0.121   2.559   8.095
 2488SOL     OW11257   1.842   3.629   7.807
 2488SOL    HW111258   1.896   3.600   7.887
 2488SOL    HW211259   1.872   3.719   7.778
 2489SOL     OW11260   1.689   2.784   8.060
 2489SOL    HW111261   1.784   2.755   8.068
 2489SOL    HW211262   1.681   2.849   7.985
 2490SOL     OW11263   1.641   2.970   7.880
 2490SOL    HW111264   1.727   2.972   7.828
 2490SOL    HW211265   1.655   3.017   7.968
 2491SOL     OW11266   0.113   2.599   9.045
 2491SOL    HW111267   0.201   2.586   9.090
 2491SOL    HW211268   0.100   2.696   9.023
 2492SOL     OW11269   0.613   3.227   8.174
 2492SOL    HW111270   0.564   3.140   8.183
 2492SOL    HW211271   0.590   3.270   8.087
 2493SOL     OW11272   1.293   3.090   8.871
 2493SOL    HW111273   1.330   3.017   8.813
 2493SOL    HW211274   1.345   3.095   8.956
 2494SOL     OW11275   0.809   1.866   7.950
 2494SOL    HW111276   0.849   1.957   7.941
 2494SOL    HW211277   0.709   1.874   7.956
 2495SOL     OW11278   0.197   2.838   8.712
 2495SOL    HW111279   0.286   2.793   8.698
 2495SOL    HW211280   0.124   2.773   8.693
 2496SOL     OW11281   1.525   2.861   7.638
 2496SOL    HW111282   1.462   2.785   7.651
 2496SOL    HW211283   1.573   2.879   7.724
 2497SOL     OW11284   1.187   3.654   9.064
 2497SOL    HW111285   1.211   3.714   8.988
 2497SOL    HW211286   1.194   3.559   9.034
 2498SOL     OW11287   0.317   2.113   9.249
 2498SOL    HW111288   0.388   2.184   9.255
 2498SOL    HW211289   0.229   2.152   9.277
 2499SOL     OW11290   1.466   3.279   8.401
 2499SOL    HW111291   1.407   3.285   8.481
 2499SOL    HW211292   1.451   3.191   8.355
 2500SOL     OW11293   1.667   3.576   8.020
 2500SOL    HW111294   1.626   3.553   7.932
 2500SOL    HW211295   1.649   3.502   8.085
 2501SOL     OW11296   0.598   2.591   7.718
 2501SOL    HW111297   0.622   2.660   7.650
 2501SOL    HW211298   0.520   2.624   7.772
 2502SOL     OW11299   1.281   2.207   8.392
 2502SOL    HW111300   1.195   2.157   8.379
 2502SOL    HW211301   1.343   2.153   8.448
 2503SOL     OW11302   1.576   3.524   7.755
 2503SOL    HW111303   1.665   3.570   7.758
 2503SOL    HW211304   1.555   3.500   7.660
 2504SOL     OW11305   0.807   2.467   8.913
 2504SOL    HW111306   0.760   2.464   9.002
 2504SOL    HW211307   0.756   2.412   8.847
 2505SOL     OW11308   1.394   2.331   9.122
 2505SOL    HW111309   1.374   2.374   9.210
 2505SOL    HW211310   1.472   2.269   9.131
 2506SOL     OW11311   0.973   2.752   9.020
 2506SOL    HW111312   1.019   2.668   8.991
 2506SOL    HW211313   0.917   2.786   8.945
 2507SOL     OW11314   0.991   2.272   8.690
 2507SOL    HW111315   0.914   2.306   8.744
 2507SOL    HW211316   0.957   2.221   8.611
 2508SOL     OW11317   1.041   2.563   7.877
 2508SOL    HW111318   1.067   2.559   7.973
 2508SOL    HW211319   0.956   2.512   7.863
 2509SOL     OW11320   0.076   2.673   8.237
 2509SOL    HW111321   0.175   2.661   8.246
 2509SOL    HW211322   0.052   2.768   8.258
 2510SOL     OW11323   0.130   3.683   9.019
 2510SOL    HW111324   0.120   3.668   9.118
 2510SOL    HW211325   0.044   3.719   8.983
 2511SOL     OW11326   0.865   2.210   7.643
 2511SOL    HW111327   0.924   2.273   7.594
 2511SOL    HW211328   0.884   2.116   7.614
 2512SOL     OW11329   1.719   2.447   9.279
 2512SOL    HW111330   1.693   2.536   9.243
 2512SOL    HW211331   1.717   2.379   9.206
 2513SOL     OW11332   1.362   3.006   7.993
 2513SOL    HW111333   1.445   2.977   7.945
 2513SOL    HW211334   1.313   3.073   7.937
 2514SOL     OW11335   0.550   2.058   8.333
 2514SOL    HW111336   0.545   2.053   8.433
 2514SOL    HW211337   0.552   2.154   8.304
 2515SOL     OW11338   1.008   3.318   7.925
 2515SOL    HW111339   0.962   3.390   7.873
 2515SOL    HW211340   1.004   3.338   8.023
 2516SOL     OW11341   0.351   3.663   8.301
 2516SOL    HW111342   0.401   3.577   8.307
 2516SOL    HW211343   0.416   3.740   8.298
 2517SOL     OW11344   1.795   2.928   8.321
 2517SOL    HW111345   1.733   2.913   8.245
 2517SOL    HW211346   1.743   2.939   8.406
 2518SOL     OW11347   1.227   3.412   8.954
 2518SOL    HW111348   1.233   3.335   9.018
 2518SOL    HW211349   1.175   3.386   8.874
 2519SOL     OW11350   0.321   2.805   7.690
 2519SOL    HW111351   0.403   2.844   7.648
 2519SOL    HW211352   0.294   2.723   7.641
 2520SOL     OW11353   1.458   2.597   8.176
 2520SOL    HW111354   1.453   2.532   8.251
 2520SOL    HW211355   1.538   2.656   8.189
 2521SOL     OW11356   0.461   3.128   9.175
 2521SOL    HW111357   0.411   3.129   9.089
 2521SOL    HW211358   0.398   3.110   9.251
 2522SOL     OW11359   1.111   3.638   7.685
 2522SOL    HW111360   1.051   3.576   7.735
 2522SOL    HW211361   1.142   3.594   7.600
 2523SOL     OW11362   0.202   2.147   8.946
 2523SOL    HW111363   0.122   2.207   8.933
 2523SOL    HW211364   0.192   2.098   9.032
 2524SOL     OW11365   1.632   3.239   7.529
 2524SOL    HW111366   1.600   3.333   7.519
 2524SOL    HW211367   1.556   3.176   7.517
 2525SOL     OW11368   1.400   1.969   7.874
 2525SOL    HW111369   1.376   1.932   7.784
 2525SOL    HW211370   1.499   1.985   7.878
 2526SOL     OW11371   0.249   3.647   8.689
 2526SOL    HW111372   0.306   3.582   8.739
 2526SOL    HW211373   0.233   3.614   8.596
 2527SOL     OW11374   0.382   2.562   7.928
 2527SOL    HW111375   0.427   2.472   7.925
 2527SOL    HW211376   0.288   2.551   7.961
 2528SOL     OW11377   1.547   2.084   9.177
 2528SOL    HW111378   1.542   2.121   9.269
 2528SOL    HW211379   1.475   2.015   9.165
 2529SOL     OW11380   0.614   1.984   7.565
 2529SOL    HW111381   0.712   1.962   7.572
 2529SOL    HW211382   0.583   1.967   7.472
 2530SOL     OW11383   0.781   2.126   9.197
 2530SOL    HW111384   0.848   2.065   9.240
 2530SOL    HW211385   0.708   2.145   9.262
 2531SOL     OW11386   1.351   2.452   8.881
 2531SOL    HW111387   1.379   2.409   8.966
 2531SOL    HW211388   1.376   2.548   8.882
 2532SOL     OW11389   0.803   3.264   8.372
 2532SOL    HW111390   0.893   3.278   8.330
 2532SOL    HW211391   0.732   3.266   8.301
 2533SOL     OW11392   0.922   2.365   8.347
 2533SOL    HW111393   0.897   2.356   8.251
 2533SOL    HW211394   0.970   2.283   8.378
 2534SOL     OW11395   0.539   1.926   7.960
 2534SOL    HW111396   0.458   1.927   8.018
 2534SOL    HW211397   0.542   2.009   7.905
 2535SOL     OW11398   1.434   3.050   7.489
 2535SOL    HW111399   1.466   2.974   7.546
 2535SOL    HW211400   1.342   3.077   7.519
 2536SOL     OW11401   0.935   2.098   7.928
 2536SOL    HW111402   0.887   2.139   7.850
 2536SOL    HW211403   1.034   2.096   7.909
 2537SOL     OW11404   1.076   2.545   8.912
 2537SOL    HW111405   0.996   2.484   8.915
 2537SOL    HW211406   1.157   2.492   8.888
 2538SOL     OW11407   1.227   3.432   8.241
 2538SOL    HW111408   1.248   3.506   8.176
 2538SOL    HW211409   1.295   3.432   8.314
 2539SOL     OW11410   0.459   3.014   8.189
 2539SOL    HW111411   0.388   2.987   8.254
 2539SOL    HW211412   0.433   2.986   8.096
 2540SOL     OW11413   1.271   3.659   8.039
 2540SOL    HW111414   1.315   3.723   7.975
 2540SOL    HW211415   1.221   3.711   8.109
 2541SOL     OW11416   1.032   2.411   7.464
 2541SOL    HW111417   0.991   2.493   7.425
 2541SOL    HW211418   1.096   2.437   7.537
 2542SOL     OW11419   0.078   2.418   8.834
 2542SOL    HW111420   0.170   2.417   8.793
 2542SOL    HW211421   0.072   2.492   8.901
 2543SOL     OW11422   0.561   2.084   8.595
 2543SOL    HW111423   0.599   2.000   8.632
 2543SOL    HW211424   0.473   2.103   8.639
 2544SOL     OW11425   0.866   2.316   8.090
 2544SOL    HW111426   0.834   2.388   8.028
 2544SOL    HW211427   0.890   2.235   8.037
 2545SOL     OW11428   1.017   1.901   8.201
 2545SOL    HW111429   0.945   1.906   8.132
 2545SOL    HW211430   0.993   1.832   8.270
 2546SOL     OW11431   1.429   3.035   8.315
 2546SOL    HW111432   1.374   2.951   8.308
 2546SOL    HW211433   1.455   3.064   8.223
 2547SOL     OW11434   1.466   2.452   8.440
 2547SOL    HW111435   1.436   2.357   8.447
 2547SOL    HW211436   1.539   2.468   8.506
 2548SOL     OW11437   1.857   2.695   7.825
 2548SOL    HW111438   1.899   2.631   7.889
 2548SOL    HW211439   1.819   2.644   7.747
 2549SOL     OW11440   1.664   3.142   8.105
 2549SOL    HW111441   1.763   3.150   8.119
 2549SOL    HW211442   1.619   3.226   8.136
 2550SOL     OW11443   1.390   2.437   7.526
 2550SOL    HW111444   1.336   2.416   7.607
 2550SOL    HW211445   1.481   2.396   7.535
 2551SOL     OW11446   0.527   2.118   7.776
 2551SOL    HW111447   0.554   2.059   7.701
 2551SOL    HW211448   0.527   2.213   7.745
 2552SOL     OW11449   1.754   3.085   9.036
 2552SOL    HW111450   1.845   3.046   9.023
 2552SOL    HW211451   1.762   3.181   9.060
 2553SOL     OW11452   1.064   3.209   8.788
 2553SOL    HW111453   0.984   3.186   8.843
 2553SOL    HW211454   1.147   3.183   8.837
 2554SOL     OW11455   1.592   3.491   9.073
 2554SOL    HW111456   1.619   3.525   8.983
 2554SOL    HW211457   1.671   3.453   9.119
 2555SOL     OW11458   1.111   3.057   8.548
 2555SOL    HW111459   1.071   3.101   8.629
 2555SOL    HW211460   1.070   3.094   8.465
 2556SOL     OW11461   1.638   2.961   8.527
 2556SOL    HW111462   1.643   3.042   8.586
 2556SOL    HW211463   1.552   2.963   8.476
 2557SOL     OW11464   0.915   1.951   8.850
 2557SOL    HW111465   0.940   1.931   8.755
 2557SOL    HW211466   0.987   2.007   8.892
 2558SOL     OW11467   0.980   2.978   9.167
 2558SOL    HW111468   0.881   2.984   9.177
 2558SOL    HW211469   1.003   2.898   9.111
 2559SOL     OW11470   0.705   2.912   7.816
 2559SOL    HW111471   0.691   2.919   7.915
 2559SOL    HW211472   0.789   2.861   7.798
 2560SOL     OW11473   0.410   2.675   8.699
 2560SOL    HW111474   0.496   2.687   8.749
 2560SOL    HW211475   0.368   2.588   8.726
 2561SOL     OW11476   1.274   2.248   8.710
 2561SOL    HW111477   1.295   2.322   8.774
 2561SOL    HW211478   1.185   2.265   8.667
 2562SOL     OW11479   0.367   2.962   7.949
 2562SOL    HW111480   0.360   3.045   7.893
 2562SOL    HW211481   0.371   2.882   7.889
 2563SOL     OW11482   0.566   2.399   8.313
 2563SOL    HW111483   0.578   2.465   8.239
 2563SOL    HW211484   0.612   2.433   8.396
 2564SOL     OW11485   1.252   3.210   7.836
 2564SOL    HW111486   1.302   3.287   7.876
 2564SOL    HW211487   1.157   3.212   7.868
 2565SOL     OW11488   1.272   3.307   8.590
 2565SOL    HW111489   1.319   3.320   8.677
 2565SOL    HW211490   1.206   3.233   8.599
 2566SOL     OW11491   1.582   2.501   7.920
 2566SOL    HW111492   1.551   2.562   7.993
 2566SOL    HW211493   1.632   2.553   7.851
 2567SOL     OW11494   0.402   2.613   9.046
 2567SOL    HW111495   0.470   2.668   8.999
 2567SOL    HW211496   0.442   2.525   9.073
 2568SOL     OW11497   1.587   2.641   9.118
 2568SOL    HW111498   1.495   2.679   9.113
 2568SOL    HW211499   1.647   2.688   9.053
 2569SOL     OW11500   1.013   1.967   9.218
 2569SOL    HW111501   1.019   2.052   9.166
 2569SOL    HW211502   1.045   1.891   9.161
 2570SOL     OW11503   0.504   1.912   9.188
 2570SOL    HW111504   0.462   1.855   9.118
 2570SOL    HW211505   0.438   1.981   9.220
 2571SOL     OW11506   0.573   2.732   8.477
 2571SOL    HW111507   0.617   2.821   8.468
 2571SOL    HW211508   0.510   2.732   8.554
 2572SOL     OW11509   1.360   2.724   8.493
 2572SOL    HW111510   1.285   2.724   8.427
 2572SOL    HW211511   1.397   2.632   8.502
 2573SOL     OW11512   1.209   2.387   7.723
 2573SOL    HW111513   1.222   2.303   7.777
 2573SOL    HW211514   1.180   2.461   7.783
 2574SOL     OW11515   0.307   2.075   8.679
 2574SOL    HW111516   0.284   2.112   8.769
 2574SOL    HW211517   0.277   1.980   8.673
 2575SOL     OW11518   0.732   2.496   8.512
 2575SOL    HW111519   0.791   2.470   8.436
 2575SOL    HW211520   0.704   2.592   8.501
 2576SOL     OW11521   1.728   2.797   9.302
 2576SOL    HW111522   1.682   2.790   9.213
 2576SOL    HW211523   1.666   2.841   9.368
 2577SOL     OW11524   0.307   1.925   8.066
 2577SOL    HW111525   0.296   2.019   8.099
 2577SOL    HW211526   0.302   1.862   8.143
 2578SOL     OW11527   1.622   2.229   7.822
 2578SOL    HW111528   1.624   2.153   7.886
 2578SOL    HW211529   1.574   2.306   7.862
 2579SOL     OW11530   1.023   2.628   8.414
 2579SOL    HW111531   1.038   2.649   8.510
 2579SOL    HW211532   0.993   2.533   8.405
 2580SOL     OW11533   0.980   3.435   9.148
 2580SOL    HW111534   0.960   3.479   9.060
 2580SOL    HW211535   1.019   3.344   9.132
 2581SOL     OW11536   1.859   3.380   9.053
 2581SOL    HW111537   1.873   3.407   8.958
 2581SOL    HW211538   1.942   3.402   9.106
 2582SOL     OW11539   0.350   2.760   9.252
 2582SOL    HW111540   0.426   2.804   9.300
 2582SOL    HW211541   0.385   2.713   9.170
 2583SOL     OW11542   1.540   2.136   7.573
 2583SOL    HW111543   1.479   2.061   7.596
 2583SOL    HW211544   1.562   2.188   7.656
 2584SOL     OW11545   1.303   2.700   7.490
 2584SOL    HW111546   1.337   2.607   7.505
 2584SOL    HW211547   1.321   2.727   7.395
 2585SOL     OW11548   1.068   3.195   8.297
 2585SOL    HW111549   1.075   3.111   8.242
 2585SOL    HW211550   1.130   3.264   8.261
 2586SOL     OW11551   0.319   2.672   8.397
 2586SOL    HW111552   0.412   2.708   8.402
 2586SOL    HW211553   0.313   2.587   8.449
 2587SOL     OW11554   0.339   2.371   8.454
 2587SOL    HW111555   0.287   2.288   8.437
 2587SOL    HW211556   0.416   2.376   8.390
 2588SOL     OW11557   1.138   2.242   9.126
 2588SOL    HW111558   1.093   2.305   9.190
 2588SOL    HW211559   1.231   2.273   9.109
 2589SOL     OW11560   1.160   2.069   8.925
 2589SOL    HW111561   1.160   2.133   9.002
 2589SOL    HW211562   1.188   2.117   8.842
 2590SOL     OW11563   0.088   3.663   8.375
 2590SOL    HW111564   0.046   3.577   8.348
 2590SOL    HW211565   0.182   3.666   8.341
 2591SOL     OW11566   0.504   3.430   8.358
 2591SOL    HW111567   0.570   3.504   8.367
 2591SOL    HW211568   0.548   3.351   8.316
 2592SOL     OW11569   1.002   2.658   8.686
 2592SOL    HW111570   1.043   2.626   8.772
 2592SOL    HW211571   0.906   2.631   8.683
 2593SOL     OW11572   0.040   2.406   8.562
 2593SOL    HW111573   0.125   2.373   8.521
 2593SOL    HW211574   0.053   2.421   8.660
 2594SOL     OW11575   0.189   2.382   9.170
 2594SOL    HW111576   0.248   2.342   9.100
 2594SOL    HW211577   0.131   2.453   9.129
 2595SOL     OW11578   1.369   2.812   9.108
 2595SOL    HW111579   1.408   2.901   9.128
 2595SOL    HW211580   1.379   2.792   9.011
 2596SOL     OW11581   0.815   2.434   7.773
 2596SOL    HW111582   0.822   2.345   7.727
 2596SOL    HW211583   0.721   2.468   7.765
 2597SOL     OW11584   1.657   2.466   8.654
 2597SOL    HW111585   1.619   2.397   8.716
 2597SOL    HW211586   1.739   2.430   8.610
 2598SOL     OW11587   0.252   3.426   9.192
 2598SOL    HW111588   0.222   3.483   9.268
 2598SOL    HW211589   0.245   3.329   9.218
 2599SOL     OW11590   0.671   2.326   8.717
 2599SOL    HW111591   0.637   2.237   8.687
 2599SOL    HW211592   0.697   2.380   8.637
 2600SOL     OW11593   0.473   2.362   7.639
 2600SOL    HW111594   0.534   2.442   7.643
 2600SOL    HW211595   0.378   2.393   7.646
 2601SOL     OW11596   0.159   2.999   8.914
 2601SOL    HW111597   0.181   2.938   8.990
 2601SOL    HW211598   0.169   2.950   8.828
 2602SOL     OW11599   1.347   2.921   8.682
 2602SOL    HW111600   1.371   2.858   8.608
 2602SOL    HW211601   1.257   2.961   8.664
 2603SOL     OW11602   1.302   2.717   7.757
 2603SOL    HW111603   1.216   2.686   7.799
 2603SOL    HW211604   1.298   2.703   7.658
 2604SOL     OW11605   1.759   3.609   8.602
 2604SOL    HW111606   1.820   3.639   8.529
 2604SOL    HW211607   1.721   3.520   8.580
 2605SOL     OW11608   0.083   3.120   8.470
 2605SOL    HW111609   0.078   3.119   8.570
 2605SOL    HW211610   0.000   3.079   8.432
 2606SOL     OW11611   1.726   1.997   7.971
 2606SOL    HW111612   1.799   1.980   7.904
 2606SOL    HW211613   1.695   1.910   8.009
 2607SOL     OW11614   1.388   3.435   7.925
 2607SOL    HW111615   1.455   3.447   7.851
 2607SOL    HW211616   1.348   3.524   7.948
 2608SOL     OW11617   0.130   3.656   9.299
 2608SOL    HW111618   0.089   3.582   9.352
 2608SOL    HW211619   0.194   3.707   9.357
 2609SOL     OW11620   1.280   2.789   8.120
 2609SOL    HW111621   1.340   2.708   8.122
 2609SOL    HW211622   1.320   2.858   8.060
 2610SOL     OW11623   0.830   3.135   8.870
 2610SOL    HW111624   0.825   3.168   8.965
 2610SOL    HW211625   0.744   3.154   8.824
 2611SOL     OW11626   0.672   3.478   7.602
 2611SOL    HW111627   0.681   3.488   7.503
 2611SOL    HW211628   0.632   3.389   7.623
 2612SOL     OW11629   1.650   3.582   8.842
 2612SOL    HW111630   1.703   3.592   8.758
 2612SOL    HW211631   1.623   3.672   8.876
 2613SOL     OW11632   1.841   2.037   8.411
 2613SOL    HW111633   1.880   1.952   8.375
 2613SOL    HW211634   1.743   2.039   8.392
 2614SOL     OW11635   0.263   2.188   8.168
 2614SOL    HW111636   0.184   2.239   8.134
 2614SOL    HW211637   0.254   2.173   8.266
 2615SOL     OW11638   1.194   3.474   7.479
 2615SOL    HW111639   1.200   3.381   7.516
 2615SOL    HW211640   1.135   3.474   7.399
 2616SOL     OW11641   0.822   2.864   8.820
 2616SOL    HW111642   0.862   2.863   8.728
 2616SOL    HW211643   0.832   2.956   8.860
 2617SOL     OW11644   0.916   2.772   7.739
 2617SOL    HW111645   0.979   2.810   7.671
 2617SOL    HW211646   0.956   2.689   7.778
 2618SOL     OW11647   1.504   3.469   7.492
 2618SOL    HW111648   1.412   3.506   7.499
 2618SOL    HW211649   1.542   3.489   7.402
 2619SOL     OW11650   1.614   3.154   8.737
 2619SOL    HW111651   1.674   3.157   8.817
 2619SOL    HW211652   1.539   3.218   8.750
 2620SOL     OW11653   1.039   2.960   8.144
 2620SOL    HW111654   0.969   2.913   8.198
 2620SOL    HW211655   1.098   2.892   8.101
 2621SOL     OW11656   1.014   2.098   8.419
 2621SOL    HW111657   1.006   2.062   8.326
 2621SOL    HW211658   1.012   2.022   8.484
 2622SOL     OW11659   0.590   3.349   7.939
 2622SOL    HW111660   0.632   3.291   7.869
 2622SOL    HW211661   0.546   3.428   7.895
 2623SOL     OW11662   1.709   2.247   8.829
 2623SOL    HW111663   1.782   2.316   8.833
 2623SOL    HW211664   1.737   2.172   8.770
 2624SOL     OW11665   0.105   2.875   9.174
 2624SOL    HW111666   0.028   2.842   9.228
 2624SOL    HW211667   0.190   2.845   9.216
 2625SOL     OW11668   0.672   2.065   8.937
 2625SOL    HW111669   0.762   2.049   8.897
 2625SOL    HW211670   0.680   2.070   9.036
 2626SOL     OW11671   0.075   2.207   7.481
 2626SOL    HW111672  -0.017   2.179   7.452
 2626SOL    HW211673   0.106   2.284   7.425
 2627SOL     OW11674   1.440   2.718   8.846
 2627SOL    HW111675   1.383   2.770   8.783
 2627SOL    HW211676   1.536   2.730   8.822
 2628SOL     OW11677   1.183   3.197   7.567
 2628SOL    HW111678   1.084   3.186   7.569
 2628SOL    HW211679   1.217   3.212   7.660
 2629SOL     OW11680   0.613   2.704   8.879
 2629SOL    HW111681   0.669   2.785   8.862
 2629SOL    HW211682   0.672   2.624   8.882
 2630SOL     OW11683   1.493   3.629   8.407
 2630SOL    HW111684   1.526   3.693   8.338
 2630SOL    HW211685   1.559   3.623   8.482
 2631SOL     OW11686   0.716   2.427   9.156
 2631SOL    HW111687   0.735   2.492   9.230
 2631SOL    HW211688   0.776   2.347   9.165
 2632SOL     OW11689   1.450   3.082   9.081
 2632SOL    HW111690   1.441   3.072   9.180
 2632SOL    HW211691   1.546   3.075   9.055
 2633SOL     OW11692   0.390   3.603   9.008
 2633SOL    HW111693   0.299   3.644   9.006
 2633SOL    HW211694   0.383   3.509   9.040
 2634SOL     OW11695   1.674   2.745   8.702
 2634SOL    HW111696   1.647   2.656   8.665
 2634SOL    HW211697   1.675   2.813   8.629
 2635SOL     OW11698   1.225   2.187   7.897
 2635SOL    HW111699   1.290   2.113   7.886
 2635SOL    HW211700   1.245   2.237   7.981
 2636SOL     OW11701   0.594   2.607   8.100
 2636SOL    HW111702   0.644   2.692   8.081
 2636SOL    HW211703   0.506   2.609   8.052
 2637SOL     OW11704   1.777   2.204   9.090
 2637SOL    HW111705   1.760   2.235   8.996
 2637SOL    HW211706   1.693   2.167   9.128
 2638SOL     OW11707   1.730   2.796   8.965
 2638SOL    HW111708   1.768   2.887   8.980
 2638SOL    HW211709   1.722   2.779   8.866
 2639SOL     OW11710   0.859   3.236   7.464
 2639SOL    HW111711   0.813   3.251   7.552
 2639SOL    HW211712   0.903   3.321   7.434
 2640SOL     OW11713   0.859   2.818   8.309
 2640SOL    HW111714   0.913   2.749   8.357
 2640SOL    HW211715   0.827   2.887   8.375
 2641SOL     OW11716   1.083   2.846   7.535
 2641SOL    HW111717   1.060   2.899   7.453
 2641SOL    HW211718   1.164   2.790   7.516
 2642SOL     OW11719   1.861   3.431   8.299
 2642SOL    HW111720   1.790   3.419   8.229
 2642SOL    HW211721   1.862   3.352   8.359
 2643SOL     OW11722   0.221   3.176   9.292
 2643SOL    HW111723   0.156   3.103   9.271
 2643SOL    HW211724   0.225   3.190   9.390
 2644SOL     OW11725   0.079   3.102   8.101
 2644SOL    HW111726   0.078   3.055   8.189
 2644SOL    HW211727   0.161   3.074   8.050
 2645SOL     OW11728   0.672   3.253   9.072
 2645SOL    HW111729   0.594   3.203   9.110
 2645SOL    HW211730   0.669   3.348   9.103
 2646SOL     OW11731   0.428   2.286   7.968
 2646SOL    HW111732   0.458   2.214   7.906
 2646SOL    HW211733   0.389   2.246   8.051
 2647SOL     OW11734   1.705   3.349   8.552
 2647SOL    HW111735   1.612   3.324   8.525
 2647SOL    HW211736   1.731   3.299   8.634
 2648SOL     OW11737   0.317   2.409   8.728
 2648SOL    HW111738   0.355   2.350   8.800
 2648SOL    HW211739   0.357   2.383   8.640
 2649SOL     OW11740   0.812   3.448   8.135
 2649SOL    HW111741   0.844   3.458   8.041
 2649SOL    HW211742   0.733   3.386   8.137
 2650SOL     OW11743   1.424   2.076   8.560
 2650SOL    HW111744   1.476   2.011   8.615
 2650SOL    HW211745   1.375   2.139   8.621
 2651SOL     OW11746   1.001   1.896   8.602
 2651SOL    HW111747   0.938   1.824   8.571
 2651SOL    HW211748   1.094   1.860   8.602
 2652SOL     OW11749   0.770   3.192   7.749
 2652SOL    HW111750   0.724   3.105   7.766
 2652SOL    HW211751   0.861   3.189   7.790
 2653SOL     OW11752   0.618   3.429   8.732
 2653SOL    HW111753   0.613   3.511   8.789
 2653SOL    HW211754   0.707   3.426   8.687
 2654SOL     OW11755   1.352   1.914   7.616
 2654SOL    HW111756   1.387   1.873   7.532
 2654SOL    HW211757   1.262   1.876   7.636
 2655SOL     OW11758   1.300   2.315   8.139
 2655SOL    HW111759   1.241   2.395   8.143
 2655SOL    HW211760   1.315   2.280   8.232
 2656SOL     OW11761   1.593   2.083   8.330
 2656SOL    HW111762   1.509   2.082   8.384
 2656SOL    HW211763   1.595   2.166   8.274
 2657SOL     OW11764   0.039   2.939   7.748
 2657SOL    HW111765   0.138   2.928   7.739
 2657SOL    HW211766  -0.001   2.853   7.780
 2658SOL     OW11767   0.875   3.508   7.785
 2658SOL    HW111768   0.798   3.473   7.731
 2658SOL    HW211769   0.843   3.579   7.847
 2659SOL     OW11770   0.230   2.490   9.423
 2659SOL    HW111771   0.137   2.488   9.460
 2659SOL    HW211772   0.231   2.451   9.331
 2660SOL     OW11773   1.755   2.469   9.541
 2660SOL    HW111774   1.743   2.456   9.442
 2660SOL    HW211775   1.725   2.388   9.590
 2661SOL     OW11776   0.231   3.575   9.793
 2661SOL    HW111777   0.265   3.652   9.847
 2661SOL    HW211778   0.275   3.575   9.703
 2662SOL     OW11779   0.230   3.296   9.848
 2662SOL    HW111780   0.204   3.392   9.848
 2662SOL    HW211781   0.159   3.242   9.893
 2663SOL     OW11782   0.606   2.826   9.433
 2663SOL    HW111783   0.613   2.910   9.379
 2663SOL    HW211784   0.652   2.839   9.521
 2664SOL     OW11785   0.122   2.505   9.873
 2664SOL    HW111786   0.077   2.417   9.890
 2664SOL    HW211787   0.121   2.559   9.957
 2665SOL     OW11788   1.842   3.629   9.669
 2665SOL    HW111789   1.896   3.600   9.749
 2665SOL    HW211790   1.872   3.719   9.640
 2666SOL     OW11791   0.027   3.458   9.427
 2666SOL    HW111792   0.008   3.362   9.448
 2666SOL    HW211793  -0.006   3.516   9.502
 2667SOL     OW11794   1.689   2.784   9.922
 2667SOL    HW111795   1.784   2.755   9.930
 2667SOL    HW211796   1.681   2.849   9.847
 2668SOL     OW11797   0.613   3.227  10.036
 2668SOL    HW111798   0.564   3.140  10.045
 2668SOL    HW211799   0.590   3.270   9.949
 2669SOL     OW11800   0.809   1.866   9.812
 2669SOL    HW111801   0.849   1.957   9.803
 2669SOL    HW211802   0.709   1.874   9.818
 2670SOL     OW11803   1.525   2.861   9.500
 2670SOL    HW111804   1.462   2.785   9.513
 2670SOL    HW211805   1.573   2.879   9.586
 2671SOL     OW11806   0.598   2.591   9.580
 2671SOL    HW111807   0.622   2.660   9.512
 2671SOL    HW211808   0.520   2.624   9.634
 2672SOL     OW11809   1.576   3.524   9.617
 2672SOL    HW111810   1.665   3.570   9.620
 2672SOL    HW211811   1.555   3.500   9.522
 2673SOL     OW11812   1.041   2.563   9.739
 2673SOL    HW111813   1.067   2.559   9.835
 2673SOL    HW211814   0.956   2.512   9.725
 2674SOL     OW11815   0.076   2.673  10.099
 2674SOL    HW111816   0.175   2.661  10.108
 2674SOL    HW211817   0.052   2.768  10.120
 2675SOL     OW11818   0.865   2.210   9.505
 2675SOL    HW111819   0.924   2.273   9.456
 2675SOL    HW211820   0.884   2.116   9.476
 2676SOL     OW11821   1.008   3.318   9.787
 2676SOL    HW111822   0.962   3.390   9.735
 2676SOL    HW211823   1.004   3.338   9.885
 2677SOL     OW11824   0.351   3.663  10.163
 2677SOL    HW111825   0.401   3.577  10.169
 2677SOL    HW211826   0.416   3.740  10.160
 2678SOL     OW11827   0.321   2.805   9.552
 2678SOL    HW111828   0.403   2.844   9.510
 2678SOL    HW211829   0.294   2.723   9.503
 2679SOL     OW11830   1.111   3.638   9.547
 2679SOL    HW111831   1.051   3.576   9.597
 2679SOL    HW211832   1.142   3.594   9.462
 2680SOL     OW11833   0.464   3.605   9.633
 2680SOL    HW111834   0.497   3.644   9.719
 2680SOL    HW211835   0.540   3.598   9.568
 2681SOL     OW11836   1.400   1.969   9.736
 2681SOL    HW111837   1.376   1.932   9.646
 2681SOL    HW211838   1.499   1.985   9.740
 2682SOL     OW11839   0.382   2.562   9.790
 2682SOL    HW111840   0.427   2.472   9.787
 2682SOL    HW211841   0.288   2.551   9.823
 2683SOL     OW11842   0.614   1.984   9.427
 2683SOL    HW111843   0.712   1.962   9.434
 2683SOL    HW211844   0.583   1.967   9.334
 2684SOL     OW11845   0.539   1.926   9.822
 2684SOL    HW111846   0.458   1.927   9.880
 2684SOL    HW211847   0.542   2.009   9.767
 2685SOL     OW11848   0.297   1.897   9.481
 2685SOL    HW111849   0.346   1.981   9.460
 2685SOL    HW211850   0.359   1.832   9.526
 2686SOL     OW11851   0.935   2.098   9.790
 2686SOL    HW111852   0.887   2.139   9.712
 2686SOL    HW211853   1.034   2.096   9.771
 2687SOL     OW11854   0.459   3.014  10.051
 2687SOL    HW111855   0.388   2.987  10.116
 2687SOL    HW211856   0.433   2.986   9.958
 2688SOL     OW11857   1.271   3.659   9.901
 2688SOL    HW111858   1.315   3.723   9.837
 2688SOL    HW211859   1.221   3.711   9.971
 2689SOL     OW11860   1.032   2.411   9.326
 2689SOL    HW111861   0.991   2.493   9.287
 2689SOL    HW211862   1.096   2.437   9.399
 2690SOL     OW11863   0.866   2.316   9.952
 2690SOL    HW111864   0.834   2.388   9.890
 2690SOL    HW211865   0.890   2.235   9.899
 2691SOL     OW11866   1.857   2.695   9.687
 2691SOL    HW111867   1.899   2.631   9.751
 2691SOL    HW211868   1.819   2.644   9.609
 2692SOL     OW11869   0.488   3.247   9.484
 2692SOL    HW111870   0.401   3.232   9.531
 2692SOL    HW211871   0.471   3.273   9.389
 2693SOL     OW11872   1.390   2.437   9.388
 2693SOL    HW111873   1.336   2.416   9.469
 2693SOL    HW211874   1.481   2.396   9.397
 2694SOL     OW11875   0.527   2.118   9.638
 2694SOL    HW111876   0.554   2.059   9.563
 2694SOL    HW211877   0.527   2.213   9.607
 2695SOL     OW11878   0.367   2.962   9.811
 2695SOL    HW111879   0.360   3.045   9.755
 2695SOL    HW211880   0.371   2.882   9.751
 2696SOL     OW11881   1.252   3.210   9.698
 2696SOL    HW111882   1.302   3.287   9.738
 2696SOL    HW211883   1.157   3.212   9.730
 2697SOL     OW11884   1.582   2.501   9.782
 2697SOL    HW111885   1.551   2.562   9.855
 2697SOL    HW211886   1.632   2.553   9.713
 2698SOL     OW11887   1.209   2.387   9.585
 2698SOL    HW111888   1.222   2.303   9.639
 2698SOL    HW211889   1.180   2.461   9.645
 2699SOL     OW11890   0.307   1.925   9.928
 2699SOL    HW111891   0.296   2.019   9.961
 2699SOL    HW211892   0.302   1.862  10.005
 2700SOL     OW11893   1.622   2.229   9.684
 2700SOL    HW111894   1.624   2.153   9.748
 2700SOL    HW211895   1.574   2.306   9.724
 2701SOL     OW11896   1.540   2.136   9.435
 2701SOL    HW111897   1.479   2.061   9.458
 2701SOL    HW211898   1.562   2.188   9.518
 2702SOL     OW11899   1.303   2.700   9.352
 2702SOL    HW111900   1.337   2.607   9.367
 2702SOL    HW211901   1.321   2.727   9.257
 2703SOL     OW11902   0.008   3.188   9.510
 2703SOL    HW111903  -0.085   3.209   9.479
 2703SOL    HW211904   0.018   3.089   9.523
 2704SOL     OW11905   0.815   2.434   9.635
 2704SOL    HW111906   0.822   2.345   9.589
 2704SOL    HW211907   0.721   2.468   9.627
 2705SOL     OW11908   0.473   2.362   9.501
 2705SOL    HW111909   0.534   2.442   9.505
 2705SOL    HW211910   0.378   2.393   9.508
 2706SOL     OW11911   1.302   2.717   9.619
 2706SOL    HW111912   1.216   2.686   9.661
 2706SOL    HW211913   1.298   2.703   9.520
 2707SOL     OW11914   1.726   1.997   9.833
 2707SOL    HW111915   1.799   1.980   9.766
 2707SOL    HW211916   1.695   1.910   9.871
 2708SOL     OW11917   1.388   3.435   9.787
 2708SOL    HW111918   1.455   3.447   9.713
 2708SOL    HW211919   1.348   3.524   9.810
 2709SOL     OW11920   0.672   3.478   9.464
 2709SOL    HW111921   0.681   3.488   9.365
 2709SOL    HW211922   0.632   3.389   9.485
 2710SOL     OW11923   0.590   3.349   9.801
 2710SOL    HW111924   0.632   3.291   9.731
 2710SOL    HW211925   0.546   3.428   9.757
 2711SOL     OW11926   0.255   3.210   9.600
 2711SOL    HW111927   0.159   3.211   9.573
 2711SOL    HW211928   0.267   3.263   9.684
 2712SOL     OW11929   0.075   2.207   9.343
 2712SOL    HW111930  -0.017   2.179   9.314
 2712SOL    HW211931   0.106   2.284   9.287
 2713SOL     OW11932   0.072   2.028   9.628
 2713SOL    HW111933   0.055   2.111   9.574
 2713SOL    HW211934   0.162   1.991   9.606
 2714SOL     OW11935   1.225   2.187   9.759
 2714SOL    HW111936   1.290   2.113   9.748
 2714SOL    HW211937   1.245   2.237   9.843
 2715SOL     OW11938   0.859   3.236   9.326
 2715SOL    HW111939   0.813   3.251   9.414
 2715SOL    HW211940   0.903   3.321   9.296
 2716SOL     OW11941   1.083   2.846   9.397
 2716SOL    HW111942   1.060   2.899   9.315
 2716SOL    HW211943   1.164   2.790   9.378
 2717SOL     OW11944   0.079   3.102   9.963
 2717SOL    HW111945   0.078   3.055  10.051
 2717SOL    HW211946   0.161   3.074   9.912
 2718SOL     OW11947   0.428   2.286   9.830
 2718SOL    HW111948   0.458   2.214   9.768
 2718SOL    HW211949   0.389   2.246   9.913
 2719SOL     OW11950   0.770   3.192   9.611
 2719SOL    HW111951   0.724   3.105   9.628
 2719SOL    HW211952   0.861   3.189   9.652
 2720SOL     OW11953   1.352   1.914   9.478
 2720SOL    HW111954   1.387   1.873   9.394
 2720SOL    HW211955   1.262   1.876   9.498
 2721SOL     OW11956   0.039   2.939   9.610
 2721SOL    HW111957   0.138   2.928   9.601
 2721SOL    HW211958  -0.001   2.853   9.642
 2722SOL     OW11959   0.875   3.508   9.647
 2722SOL    HW111960   0.798   3.473   9.593
 2722SOL    HW211961   0.843   3.579   9.709
 2723SOL     OW11962   0.230   4.352   0.113
 2723SOL    HW111963   0.137   4.350   0.150
 2723SOL    HW211964   0.231   4.313   0.021
 2724SOL     OW11965   0.225   3.999   0.996
 2724SOL    HW111966   0.260   3.982   1.088
 2724SOL    HW211967   0.137   3.954   0.984
 2725SOL     OW11968   0.019   4.092   0.647
 2725SOL    HW111969  -0.063   4.135   0.686
 2725SOL    HW211970  -0.009   4.019   0.584
 2726SOL     OW11971   0.569   4.999   1.165
 2726SOL    HW111972   0.476   4.992   1.128
 2726SOL    HW211973   0.580   5.088   1.209
 2727SOL     OW11974   1.555   5.235   0.703
 2727SOL    HW111975   1.498   5.219   0.784
 2727SOL    HW211976   1.496   5.245   0.623
 2728SOL     OW11977   1.135   4.427   0.717
 2728SOL    HW111978   1.192   4.505   0.692
 2728SOL    HW211979   1.075   4.453   0.793
 2729SOL     OW11980   1.755   4.331   0.231
 2729SOL    HW111981   1.743   4.318   0.132
 2729SOL    HW211982   1.725   4.250   0.280
 2730SOL     OW11983   0.768   4.868   1.023
 2730SOL    HW111984   0.690   4.885   1.083
 2730SOL    HW211985   0.802   4.955   0.987
 2731SOL     OW11986   0.850   4.522   1.823
 2731SOL    HW111987   0.846   4.598   1.888
 2731SOL    HW211988   0.872   4.558   1.732
 2732SOL     OW11989   0.685   4.736   0.665
 2732SOL    HW111990   0.754   4.720   0.735
 2732SOL    HW211991   0.612   4.793   0.703
 2733SOL     OW11992   0.686   4.885   1.803
 2733SOL    HW111993   0.746   4.964   1.817
 2733SOL    HW211994   0.600   4.916   1.762
 2734SOL     OW11995   0.335   5.159   1.061
 2734SOL    HW111996   0.257   5.128   1.008
 2734SOL    HW211997   0.393   5.217   1.004
 2735SOL     OW11998   1.460   5.229   1.339
 2735SOL    HW111999   1.484   5.323   1.365
 2735SOL    HW212000   1.444   5.175   1.421
 2736SOL     OW12001   0.438   4.116   1.499
 2736SOL    HW112002   0.520   4.060   1.508
 2736SOL    HW212003   0.357   4.058   1.503
 2737SOL     OW12004   0.231   5.437   0.483
 2737SOL    HW112005   0.265   5.514   0.537
 2737SOL    HW212006   0.275   5.437   0.393
 2738SOL     OW12007   1.127   5.065   1.690
 2738SOL    HW112008   1.174   5.065   1.778
 2738SOL    HW212009   1.079   4.978   1.679
 2739SOL     OW12010   0.230   5.158   0.538
 2739SOL    HW112011   0.204   5.254   0.538
 2739SOL    HW212012   0.159   5.104   0.583
 2740SOL     OW12013   0.240   4.815   0.886
 2740SOL    HW112014   0.254   4.731   0.938
 2740SOL    HW212015   0.185   4.879   0.941
 2741SOL     OW12016   0.620   5.510   1.439
 2741SOL    HW112017   0.528   5.493   1.474
 2741SOL    HW212018   0.648   5.602   1.465
 2742SOL     OW12019   0.606   4.688   0.123
 2742SOL    HW112020   0.613   4.772   0.069
 2742SOL    HW212021   0.652   4.701   0.211
 2743SOL     OW12022   0.122   4.367   0.563
 2743SOL    HW112023   0.077   4.279   0.580
 2743SOL    HW212024   0.121   4.421   0.647
 2744SOL     OW12025   1.842   5.491   0.359
 2744SOL    HW112026   1.896   5.462   0.439
 2744SOL    HW212027   1.872   5.581   0.330
 2745SOL     OW12028   0.027   5.320   0.117
 2745SOL    HW112029   0.008   5.224   0.138
 2745SOL    HW212030  -0.006   5.378   0.192
 2746SOL     OW12031   1.689   4.646   0.612
 2746SOL    HW112032   1.784   4.617   0.620
 2746SOL    HW212033   1.681   4.711   0.537
 2747SOL     OW12034   1.641   4.832   0.432
 2747SOL    HW112035   1.727   4.834   0.380
 2747SOL    HW212036   1.655   4.879   0.520
 2748SOL     OW12037   0.113   4.461   1.597
 2748SOL    HW112038   0.201   4.448   1.642
 2748SOL    HW212039   0.100   4.558   1.575
 2749SOL     OW12040   0.613   5.089   0.726
 2749SOL    HW112041   0.564   5.002   0.735
 2749SOL    HW212042   0.590   5.132   0.639
 2750SOL     OW12043   1.293   4.952   1.423
 2750SOL    HW112044   1.330   4.879   1.365
 2750SOL    HW212045   1.345   4.957   1.508
 2751SOL     OW12046   0.809   3.728   0.502
 2751SOL    HW112047   0.849   3.819   0.493
 2751SOL    HW212048   0.709   3.736   0.508
 2752SOL     OW12049   0.197   4.700   1.264
 2752SOL    HW112050   0.286   4.655   1.250
 2752SOL    HW212051   0.124   4.635   1.245
 2753SOL     OW12052   1.525   4.723   0.190
 2753SOL    HW112053   1.462   4.647   0.203
 2753SOL    HW212054   1.573   4.741   0.276
 2754SOL     OW12055   1.187   5.516   1.616
 2754SOL    HW112056   1.211   5.576   1.540
 2754SOL    HW212057   1.194   5.421   1.586
 2755SOL     OW12058   0.317   3.975   1.801
 2755SOL    HW112059   0.388   4.046   1.807
 2755SOL    HW212060   0.229   4.014   1.829
 2756SOL     OW12061   1.466   5.141   0.953
 2756SOL    HW112062   1.407   5.147   1.033
 2756SOL    HW212063   1.451   5.053   0.907
 2757SOL     OW12064   1.667   5.438   0.572
 2757SOL    HW112065   1.626   5.415   0.484
 2757SOL    HW212066   1.649   5.364   0.637
 2758SOL     OW12067   0.598   4.453   0.270
 2758SOL    HW112068   0.622   4.522   0.202
 2758SOL    HW212069   0.520   4.486   0.324
 2759SOL     OW12070   1.281   4.069   0.944
 2759SOL    HW112071   1.195   4.019   0.931
 2759SOL    HW212072   1.343   4.015   1.000
 2760SOL     OW12073   1.576   5.386   0.307
 2760SOL    HW112074   1.665   5.432   0.310
 2760SOL    HW212075   1.555   5.362   0.212
 2761SOL     OW12076   0.807   4.329   1.465
 2761SOL    HW112077   0.760   4.326   1.554
 2761SOL    HW212078   0.756   4.274   1.399
 2762SOL     OW12079   1.394   4.193   1.674
 2762SOL    HW112080   1.374   4.236   1.762
 2762SOL    HW212081   1.472   4.131   1.683
 2763SOL     OW12082   0.973   4.614   1.572
 2763SOL    HW112083   1.019   4.530   1.543
 2763SOL    HW212084   0.917   4.648   1.497
 2764SOL     OW12085   0.991   4.134   1.242
 2764SOL    HW112086   0.914   4.168   1.296
 2764SOL    HW212087   0.957   4.083   1.163
 2765SOL     OW12088   1.041   4.425   0.429
 2765SOL    HW112089   1.067   4.421   0.525
 2765SOL    HW212090   0.956   4.374   0.415
 2766SOL     OW12091   0.076   4.535   0.789
 2766SOL    HW112092   0.175   4.523   0.798
 2766SOL    HW212093   0.052   4.630   0.810
 2767SOL     OW12094   0.130   5.545   1.571
 2767SOL    HW112095   0.120   5.530   1.670
 2767SOL    HW212096   0.044   5.581   1.535
 2768SOL     OW12097   1.719   4.309   1.831
 2768SOL    HW112098   1.693   4.398   1.795
 2768SOL    HW212099   1.717   4.241   1.758
 2769SOL     OW12100   1.362   4.868   0.545
 2769SOL    HW112101   1.445   4.839   0.497
 2769SOL    HW212102   1.313   4.935   0.489
 2770SOL     OW12103   0.550   3.920   0.885
 2770SOL    HW112104   0.545   3.915   0.985
 2770SOL    HW212105   0.552   4.016   0.856
 2771SOL     OW12106   1.008   5.180   0.477
 2771SOL    HW112107   0.962   5.252   0.425
 2771SOL    HW212108   1.004   5.200   0.575
 2772SOL     OW12109   0.351   5.525   0.853
 2772SOL    HW112110   0.401   5.439   0.859
 2772SOL    HW212111   0.416   5.602   0.850
 2773SOL     OW12112   1.795   4.790   0.873
 2773SOL    HW112113   1.733   4.775   0.797
 2773SOL    HW212114   1.743   4.801   0.958
 2774SOL     OW12115   1.227   5.274   1.506
 2774SOL    HW112116   1.233   5.197   1.570
 2774SOL    HW212117   1.175   5.248   1.426
 2775SOL     OW12118   0.321   4.667   0.242
 2775SOL    HW112119   0.403   4.706   0.200
 2775SOL    HW212120   0.294   4.585   0.193
 2776SOL     OW12121   0.461   4.990   1.727
 2776SOL    HW112122   0.411   4.991   1.641
 2776SOL    HW212123   0.398   4.972   1.803
 2777SOL     OW12124   1.111   5.500   0.237
 2777SOL    HW112125   1.051   5.438   0.287
 2777SOL    HW212126   1.142   5.456   0.152
 2778SOL     OW12127   0.202   4.009   1.498
 2778SOL    HW112128   0.122   4.069   1.485
 2778SOL    HW212129   0.192   3.960   1.584
 2779SOL     OW12130   1.632   5.101   0.081
 2779SOL    HW112131   1.600   5.195   0.071
 2779SOL    HW212132   1.556   5.038   0.069
 2780SOL     OW12133   0.464   5.467   0.323
 2780SOL    HW112134   0.497   5.506   0.409
 2780SOL    HW212135   0.540   5.460   0.258
 2781SOL     OW12136   1.400   3.831   0.426
 2781SOL    HW112137   1.376   3.794   0.336
 2781SOL    HW212138   1.499   3.847   0.430
 2782SOL     OW12139   0.249   5.509   1.241
 2782SOL    HW112140   0.306   5.444   1.291
 2782SOL    HW212141   0.233   5.476   1.148
 2783SOL     OW12142   0.940   5.422   0.904
 2783SOL    HW112143   1.020   5.365   0.925
 2783SOL    HW212144   0.891   5.382   0.827
 2784SOL     OW12145   0.382   4.424   0.480
 2784SOL    HW112146   0.427   4.334   0.477
 2784SOL    HW212147   0.288   4.413   0.513
 2785SOL     OW12148   1.547   3.946   1.729
 2785SOL    HW112149   1.542   3.983   1.821
 2785SOL    HW212150   1.475   3.877   1.717
 2786SOL     OW12151   0.614   3.846   0.117
 2786SOL    HW112152   0.712   3.824   0.124
 2786SOL    HW212153   0.583   3.829   0.024
 2787SOL     OW12154   0.781   3.988   1.749
 2787SOL    HW112155   0.848   3.927   1.792
 2787SOL    HW212156   0.708   4.007   1.814
 2788SOL     OW12157   0.888   5.238   1.195
 2788SOL    HW112158   0.865   5.213   1.101
 2788SOL    HW212159   0.949   5.169   1.234
 2789SOL     OW12160   1.351   4.314   1.433
 2789SOL    HW112161   1.379   4.271   1.518
 2789SOL    HW212162   1.376   4.410   1.434
 2790SOL     OW12163   0.803   5.126   0.924
 2790SOL    HW112164   0.893   5.140   0.882
 2790SOL    HW212165   0.732   5.128   0.853
 2791SOL     OW12166   0.922   4.227   0.899
 2791SOL    HW112167   0.897   4.218   0.803
 2791SOL    HW212168   0.970   4.145   0.930
 2792SOL     OW12169   0.539   3.788   0.512
 2792SOL    HW112170   0.458   3.789   0.570
 2792SOL    HW212171   0.542   3.871   0.457
 2793SOL     OW12172   1.434   4.912   0.041
 2793SOL    HW112173   1.466   4.836   0.098
 2793SOL    HW212174   1.342   4.939   0.071
 2794SOL     OW12175   0.935   3.960   0.480
 2794SOL    HW112176   0.887   4.001   0.402
 2794SOL    HW212177   1.034   3.958   0.461
 2795SOL     OW12178   1.076   4.407   1.464
 2795SOL    HW112179   0.996   4.346   1.467
 2795SOL    HW212180   1.157   4.354   1.440
 2796SOL     OW12181   1.227   5.294   0.793
 2796SOL    HW112182   1.248   5.368   0.728
 2796SOL    HW212183   1.295   5.294   0.866
 2797SOL     OW12184   0.459   4.876   0.741
 2797SOL    HW112185   0.388   4.849   0.806
 2797SOL    HW212186   0.433   4.848   0.648
 2798SOL     OW12187   1.271   5.521   0.591
 2798SOL    HW112188   1.315   5.585   0.527
 2798SOL    HW212189   1.221   5.573   0.661
 2799SOL     OW12190   0.078   4.280   1.386
 2799SOL    HW112191   0.170   4.279   1.345
 2799SOL    HW212192   0.072   4.354   1.453
 2800SOL     OW12193   0.561   3.946   1.147
 2800SOL    HW112194   0.599   3.862   1.184
 2800SOL    HW212195   0.473   3.965   1.191
 2801SOL     OW12196   0.866   4.178   0.642
 2801SOL    HW112197   0.834   4.250   0.580
 2801SOL    HW212198   0.890   4.097   0.589
 2802SOL     OW12199   1.017   3.763   0.753
 2802SOL    HW112200   0.945   3.768   0.684
 2802SOL    HW212201   0.993   3.694   0.822
 2803SOL     OW12202   1.429   4.897   0.867
 2803SOL    HW112203   1.374   4.813   0.860
 2803SOL    HW212204   1.455   4.926   0.775
 2804SOL     OW12205   1.857   4.557   0.377
 2804SOL    HW112206   1.899   4.493   0.441
 2804SOL    HW212207   1.819   4.506   0.299
 2805SOL     OW12208   0.488   5.109   0.174
 2805SOL    HW112209   0.401   5.094   0.221
 2805SOL    HW212210   0.471   5.135   0.079
 2806SOL     OW12211   1.664   5.004   0.657
 2806SOL    HW112212   1.763   5.012   0.671
 2806SOL    HW212213   1.619   5.088   0.688
 2807SOL     OW12214   1.390   4.299   0.078
 2807SOL    HW112215   1.336   4.278   0.159
 2807SOL    HW212216   1.481   4.258   0.087
 2808SOL     OW12217   0.527   3.980   0.328
 2808SOL    HW112218   0.554   3.921   0.253
 2808SOL    HW212219   0.527   4.075   0.297
 2809SOL     OW12220   1.754   4.947   1.588
 2809SOL    HW112221   1.845   4.908   1.575
 2809SOL    HW212222   1.762   5.043   1.612
 2810SOL     OW12223   1.064   5.071   1.340
 2810SOL    HW112224   0.984   5.048   1.395
 2810SOL    HW212225   1.147   5.045   1.389
 2811SOL     OW12226   1.592   5.353   1.625
 2811SOL    HW112227   1.619   5.387   1.535
 2811SOL    HW212228   1.671   5.315   1.671
 2812SOL     OW12229   1.111   4.919   1.100
 2812SOL    HW112230   1.071   4.963   1.181
 2812SOL    HW212231   1.070   4.956   1.017
 2813SOL     OW12232   1.638   4.823   1.079
 2813SOL    HW112233   1.643   4.904   1.138
 2813SOL    HW212234   1.552   4.825   1.028
 2814SOL     OW12235   0.915   3.813   1.402
 2814SOL    HW112236   0.940   3.793   1.307
 2814SOL    HW212237   0.987   3.869   1.444
 2815SOL     OW12238   0.980   4.840   1.719
 2815SOL    HW112239   0.881   4.846   1.729
 2815SOL    HW212240   1.003   4.760   1.663
 2816SOL     OW12241   0.705   4.774   0.368
 2816SOL    HW112242   0.691   4.781   0.467
 2816SOL    HW212243   0.789   4.723   0.350
 2817SOL     OW12244   0.410   4.537   1.251
 2817SOL    HW112245   0.496   4.549   1.301
 2817SOL    HW212246   0.368   4.450   1.278
 2818SOL     OW12247   1.274   4.110   1.262
 2818SOL    HW112248   1.295   4.184   1.326
 2818SOL    HW212249   1.185   4.127   1.219
 2819SOL     OW12250   0.064   5.288   1.331
 2819SOL    HW112251   0.018   5.370   1.297
 2819SOL    HW212252   0.162   5.307   1.340
 2820SOL     OW12253   0.367   4.824   0.501
 2820SOL    HW112254   0.360   4.907   0.445
 2820SOL    HW212255   0.371   4.744   0.441
 2821SOL     OW12256   0.566   4.261   0.865
 2821SOL    HW112257   0.578   4.327   0.791
 2821SOL    HW212258   0.612   4.295   0.948
 2822SOL     OW12259   1.252   5.072   0.388
 2822SOL    HW112260   1.302   5.149   0.428
 2822SOL    HW212261   1.157   5.074   0.420
 2823SOL     OW12262   1.272   5.169   1.142
 2823SOL    HW112263   1.319   5.182   1.229
 2823SOL    HW212264   1.206   5.095   1.151
 2824SOL     OW12265   1.582   4.363   0.472
 2824SOL    HW112266   1.551   4.424   0.545
 2824SOL    HW212267   1.632   4.415   0.403
 2825SOL     OW12268   0.354   5.234   1.329
 2825SOL    HW112269   0.333   5.190   1.242
 2825SOL    HW212270   0.451   5.260   1.332
 2826SOL     OW12271   0.402   4.475   1.598
 2826SOL    HW112272   0.470   4.530   1.551
 2826SOL    HW212273   0.442   4.387   1.625
 2827SOL     OW12274   1.587   4.503   1.670
 2827SOL    HW112275   1.495   4.541   1.665
 2827SOL    HW212276   1.647   4.550   1.605
 2828SOL     OW12277   1.013   3.829   1.770
 2828SOL    HW112278   1.019   3.914   1.718
 2828SOL    HW212279   1.045   3.753   1.713
 2829SOL     OW12280   0.504   3.774   1.740
 2829SOL    HW112281   0.462   3.717   1.670
 2829SOL    HW212282   0.438   3.843   1.772
 2830SOL     OW12283   0.573   4.594   1.029
 2830SOL    HW112284   0.617   4.683   1.020
 2830SOL    HW212285   0.510   4.594   1.106
 2831SOL     OW12286   1.360   4.586   1.045
 2831SOL    HW112287   1.285   4.586   0.979
 2831SOL    HW212288   1.397   4.494   1.054
 2832SOL     OW12289   1.209   4.249   0.275
 2832SOL    HW112290   1.222   4.165   0.329
 2832SOL    HW212291   1.180   4.323   0.335
 2833SOL     OW12292   0.307   3.937   1.231
 2833SOL    HW112293   0.284   3.974   1.321
 2833SOL    HW212294   0.277   3.842   1.225
 2834SOL     OW12295   0.037   5.034   1.282
 2834SOL    HW112296   0.090   4.985   1.350
 2834SOL    HW212297   0.059   5.132   1.287
 2835SOL     OW12298   0.732   4.358   1.064
 2835SOL    HW112299   0.791   4.332   0.988
 2835SOL    HW212300   0.704   4.454   1.053
 2836SOL     OW12301   1.728   4.659   1.854
 2836SOL    HW112302   1.682   4.652   1.765
 2836SOL    HW212303   1.666   4.703   1.920
 2837SOL     OW12304   0.307   3.787   0.618
 2837SOL    HW112305   0.296   3.881   0.651
 2837SOL    HW212306   0.302   3.724   0.695
 2838SOL     OW12307   1.622   4.091   0.374
 2838SOL    HW112308   1.624   4.015   0.438
 2838SOL    HW212309   1.574   4.168   0.414
 2839SOL     OW12310   1.023   4.490   0.966
 2839SOL    HW112311   1.038   4.511   1.062
 2839SOL    HW212312   0.993   4.395   0.957
 2840SOL     OW12313   0.980   5.297   1.700
 2840SOL    HW112314   0.960   5.341   1.612
 2840SOL    HW212315   1.019   5.206   1.684
 2841SOL     OW12316   1.859   5.242   1.605
 2841SOL    HW112317   1.873   5.269   1.510
 2841SOL    HW212318   1.942   5.264   1.658
 2842SOL     OW12319   0.350   4.622   1.804
 2842SOL    HW112320   0.426   4.666   1.852
 2842SOL    HW212321   0.385   4.575   1.722
 2843SOL     OW12322   1.540   3.998   0.125
 2843SOL    HW112323   1.479   3.923   0.148
 2843SOL    HW212324   1.562   4.050   0.208
 2844SOL     OW12325   1.303   4.562   0.042
 2844SOL    HW112326   1.337   4.469   0.057
 2844SOL    HW212327   1.321   4.589  -0.053
 2845SOL     OW12328   1.068   5.057   0.849
 2845SOL    HW112329   1.075   4.973   0.794
 2845SOL    HW212330   1.130   5.126   0.813
 2846SOL     OW12331   0.319   4.534   0.949
 2846SOL    HW112332   0.412   4.570   0.954
 2846SOL    HW212333   0.313   4.449   1.001
 2847SOL     OW12334   0.339   4.233   1.006
 2847SOL    HW112335   0.287   4.150   0.989
 2847SOL    HW212336   0.416   4.238   0.942
 2848SOL     OW12337   1.138   4.104   1.678
 2848SOL    HW112338   1.093   4.167   1.742
 2848SOL    HW212339   1.231   4.135   1.661
 2849SOL     OW12340   1.160   3.931   1.477
 2849SOL    HW112341   1.160   3.995   1.554
 2849SOL    HW212342   1.188   3.979   1.394
 2850SOL     OW12343   0.008   5.050   0.200
 2850SOL    HW112344  -0.085   5.071   0.169
 2850SOL    HW212345   0.018   4.951   0.213
 2851SOL     OW12346   0.088   5.525   0.927
 2851SOL    HW112347   0.046   5.439   0.900
 2851SOL    HW212348   0.182   5.528   0.893
 2852SOL     OW12349   0.504   5.292   0.910
 2852SOL    HW112350   0.570   5.366   0.919
 2852SOL    HW212351   0.548   5.213   0.868
 2853SOL     OW12352   1.002   4.520   1.238
 2853SOL    HW112353   1.043   4.488   1.324
 2853SOL    HW212354   0.906   4.493   1.235
 2854SOL     OW12355   0.040   4.268   1.114
 2854SOL    HW112356   0.125   4.235   1.073
 2854SOL    HW212357   0.053   4.283   1.212
 2855SOL     OW12358   0.189   4.244   1.722
 2855SOL    HW112359   0.248   4.204   1.652
 2855SOL    HW212360   0.131   4.315   1.681
 2856SOL     OW12361   1.369   4.674   1.660
 2856SOL    HW112362   1.408   4.763   1.680
 2856SOL    HW212363   1.379   4.654   1.563
 2857SOL     OW12364   0.815   4.296   0.325
 2857SOL    HW112365   0.822   4.207   0.279
 2857SOL    HW212366   0.721   4.330   0.317
 2858SOL     OW12367   1.657   4.328   1.206
 2858SOL    HW112368   1.619   4.259   1.268
 2858SOL    HW212369   1.739   4.292   1.162
 2859SOL     OW12370   0.252   5.288   1.744
 2859SOL    HW112371   0.222   5.345   1.820
 2859SOL    HW212372   0.245   5.191   1.770
 2860SOL     OW12373   0.671   4.188   1.269
 2860SOL    HW112374   0.637   4.099   1.239
 2860SOL    HW212375   0.697   4.242   1.189
 2861SOL     OW12376   0.930   5.402   1.465
 2861SOL    HW112377   0.906   5.384   1.370
 2861SOL    HW212378   0.960   5.496   1.475
 2862SOL     OW12379   0.473   4.224   0.191
 2862SOL    HW112380   0.534   4.304   0.195
 2862SOL    HW212381   0.378   4.255   0.198
 2863SOL     OW12382   0.159   4.861   1.466
 2863SOL    HW112383   0.181   4.800   1.542
 2863SOL    HW212384   0.169   4.812   1.380
 2864SOL     OW12385   1.347   4.783   1.234
 2864SOL    HW112386   1.371   4.720   1.160
 2864SOL    HW212387   1.257   4.823   1.216
 2865SOL     OW12388   1.302   4.579   0.309
 2865SOL    HW112389   1.216   4.548   0.351
 2865SOL    HW212390   1.298   4.565   0.210
 2866SOL     OW12391   1.759   5.471   1.154
 2866SOL    HW112392   1.820   5.501   1.081
 2866SOL    HW212393   1.721   5.382   1.132
 2867SOL     OW12394   1.252   5.455   1.128
 2867SOL    HW112395   1.336   5.460   1.074
 2867SOL    HW212396   1.229   5.359   1.146
 2868SOL     OW12397   0.083   4.982   1.022
 2868SOL    HW112398   0.078   4.981   1.122
 2868SOL    HW212399   0.000   4.941   0.984
 2869SOL     OW12400   0.688   5.386   1.716
 2869SOL    HW112401   0.632   5.467   1.725
 2869SOL    HW212402   0.740   5.390   1.630
 2870SOL     OW12403   0.903   3.810   0.133
 2870SOL    HW112404   0.954   3.811   0.047
 2870SOL    HW212405   0.959   3.768   0.204
 2871SOL     OW12406   1.388   5.297   0.477
 2871SOL    HW112407   1.455   5.309   0.403
 2871SOL    HW212408   1.348   5.386   0.500
 2872SOL     OW12409   1.280   4.651   0.672
 2872SOL    HW112410   1.340   4.570   0.674
 2872SOL    HW212411   1.320   4.720   0.612
 2873SOL     OW12412   0.830   4.997   1.422
 2873SOL    HW112413   0.825   5.030   1.517
 2873SOL    HW212414   0.744   5.016   1.376
 2874SOL     OW12415   0.672   5.340   0.154
 2874SOL    HW112416   0.681   5.350   0.055
 2874SOL    HW212417   0.632   5.251   0.175
 2875SOL     OW12418   1.650   5.444   1.394
 2875SOL    HW112419   1.703   5.454   1.310
 2875SOL    HW212420   1.623   5.534   1.428
 2876SOL     OW12421   0.263   4.050   0.720
 2876SOL    HW112422   0.184   4.101   0.686
 2876SOL    HW212423   0.254   4.035   0.818
 2877SOL     OW12424   1.194   5.336   0.031
 2877SOL    HW112425   1.200   5.243   0.068
 2877SOL    HW212426   1.135   5.336  -0.049
 2878SOL     OW12427   0.822   4.726   1.372
 2878SOL    HW112428   0.862   4.725   1.280
 2878SOL    HW212429   0.832   4.818   1.412
 2879SOL     OW12430   0.916   4.634   0.291
 2879SOL    HW112431   0.979   4.672   0.223
 2879SOL    HW212432   0.956   4.551   0.330
 2880SOL     OW12433   1.504   5.331   0.044
 2880SOL    HW112434   1.412   5.368   0.051
 2880SOL    HW212435   1.542   5.351  -0.046
 2881SOL     OW12436   0.372   5.012   1.490
 2881SOL    HW112437   0.359   5.105   1.456
 2881SOL    HW212438   0.288   4.960   1.477
 2882SOL     OW12439   1.614   5.016   1.289
 2882SOL    HW112440   1.674   5.019   1.369
 2882SOL    HW212441   1.539   5.080   1.302
 2883SOL     OW12442   1.039   4.822   0.696
 2883SOL    HW112443   0.969   4.775   0.750
 2883SOL    HW212444   1.098   4.754   0.653
 2884SOL     OW12445   1.014   3.960   0.971
 2884SOL    HW112446   1.006   3.924   0.878
 2884SOL    HW212447   1.012   3.884   1.036
 2885SOL     OW12448   0.590   5.211   0.491
 2885SOL    HW112449   0.632   5.153   0.421
 2885SOL    HW212450   0.546   5.290   0.447
 2886SOL     OW12451   1.709   4.109   1.381
 2886SOL    HW112452   1.782   4.178   1.385
 2886SOL    HW212453   1.737   4.034   1.322
 2887SOL     OW12454   0.255   5.072   0.290
 2887SOL    HW112455   0.159   5.073   0.263
 2887SOL    HW212456   0.267   5.125   0.374
 2888SOL     OW12457   0.105   4.737   1.726
 2888SOL    HW112458   0.028   4.704   1.780
 2888SOL    HW212459   0.190   4.707   1.768
 2889SOL     OW12460   0.672   3.927   1.489
 2889SOL    HW112461   0.762   3.911   1.449
 2889SOL    HW212462   0.680   3.932   1.588
 2890SOL     OW12463   0.075   4.069   0.033
 2890SOL    HW112464  -0.017   4.041   0.004
 2890SOL    HW212465   0.106   4.146  -0.023
 2891SOL     OW12466   1.440   4.580   1.398
 2891SOL    HW112467   1.383   4.632   1.335
 2891SOL    HW212468   1.536   4.592   1.374
 2892SOL     OW12469   0.072   3.890   0.318
 2892SOL    HW112470   0.055   3.973   0.264
 2892SOL    HW212471   0.162   3.853   0.296
 2893SOL     OW12472   1.183   5.059   0.119
 2893SOL    HW112473   1.084   5.048   0.121
 2893SOL    HW212474   1.217   5.074   0.212
 2894SOL     OW12475   0.613   4.566   1.431
 2894SOL    HW112476   0.669   4.647   1.414
 2894SOL    HW212477   0.672   4.486   1.434
 2895SOL     OW12478   1.493   5.491   0.959
 2895SOL    HW112479   1.526   5.555   0.890
 2895SOL    HW212480   1.559   5.485   1.034
 2896SOL     OW12481   0.716   4.289   1.708
 2896SOL    HW112482   0.735   4.354   1.782
 2896SOL    HW212483   0.776   4.209   1.717
 2897SOL     OW12484   1.450   4.944   1.633
 2897SOL    HW112485   1.441   4.934   1.732
 2897SOL    HW212486   1.546   4.937   1.607
 2898SOL     OW12487   0.390   5.465   1.560
 2898SOL    HW112488   0.299   5.506   1.558
 2898SOL    HW212489   0.383   5.371   1.592
 2899SOL     OW12490   1.674   4.607   1.254
 2899SOL    HW112491   1.647   4.518   1.217
 2899SOL    HW212492   1.675   4.675   1.181
 2900SOL     OW12493   1.225   4.049   0.449
 2900SOL    HW112494   1.290   3.975   0.438
 2900SOL    HW212495   1.245   4.099   0.533
 2901SOL     OW12496   0.594   4.469   0.652
 2901SOL    HW112497   0.644   4.554   0.633
 2901SOL    HW212498   0.506   4.471   0.604
 2902SOL     OW12499   1.777   4.066   1.642
 2902SOL    HW112500   1.760   4.097   1.548
 2902SOL    HW212501   1.693   4.029   1.680
 2903SOL     OW12502   1.730   4.658   1.517
 2903SOL    HW112503   1.768   4.749   1.532
 2903SOL    HW212504   1.722   4.641   1.418
 2904SOL     OW12505   0.859   5.098   0.016
 2904SOL    HW112506   0.813   5.113   0.104
 2904SOL    HW212507   0.903   5.183  -0.014
 2905SOL     OW12508   0.661   5.514   0.953
 2905SOL    HW112509   0.615   5.602   0.940
 2905SOL    HW212510   0.760   5.526   0.946
 2906SOL     OW12511   0.859   4.680   0.861
 2906SOL    HW112512   0.913   4.611   0.909
 2906SOL    HW212513   0.827   4.749   0.927
 2907SOL     OW12514   1.083   4.708   0.087
 2907SOL    HW112515   1.060   4.761   0.005
 2907SOL    HW212516   1.164   4.652   0.068
 2908SOL     OW12517   1.861   5.293   0.851
 2908SOL    HW112518   1.790   5.281   0.781
 2908SOL    HW212519   1.862   5.214   0.911
 2909SOL     OW12520   0.221   5.038   1.844
 2909SOL    HW112521   0.156   4.965   1.823
 2909SOL    HW212522   0.225   5.052   1.942
 2910SOL     OW12523   0.079   4.964   0.653
 2910SOL    HW112524   0.078   4.917   0.741
 2910SOL    HW212525   0.161   4.936   0.602
 2911SOL     OW12526   0.672   5.115   1.624
 2911SOL    HW112527   0.594   5.065   1.662
 2911SOL    HW212528   0.669   5.210   1.655
 2912SOL     OW12529   0.428   4.148   0.520
 2912SOL    HW112530   0.458   4.076   0.458
 2912SOL    HW212531   0.389   4.108   0.603
 2913SOL     OW12532   1.705   5.211   1.104
 2913SOL    HW112533   1.612   5.186   1.077
 2913SOL    HW212534   1.731   5.161   1.186
 2914SOL     OW12535   0.317   4.271   1.280
 2914SOL    HW112536   0.355   4.212   1.352
 2914SOL    HW212537   0.357   4.245   1.192
 2915SOL     OW12538   0.812   5.310   0.687
 2915SOL    HW112539   0.844   5.320   0.593
 2915SOL    HW212540   0.733   5.248   0.689
 2916SOL     OW12541   1.424   3.938   1.112
 2916SOL    HW112542   1.476   3.873   1.167
 2916SOL    HW212543   1.375   4.001   1.173
 2917SOL     OW12544   1.001   3.758   1.154
 2917SOL    HW112545   0.938   3.686   1.123
 2917SOL    HW212546   1.094   3.722   1.154
 2918SOL     OW12547   0.770   5.054   0.301
 2918SOL    HW112548   0.724   4.967   0.318
 2918SOL    HW212549   0.861   5.051   0.342
 2919SOL     OW12550   0.618   5.291   1.284
 2919SOL    HW112551   0.613   5.373   1.341
 2919SOL    HW212552   0.707   5.288   1.239
 2920SOL     OW12553   1.352   3.776   0.168
 2920SOL    HW112554   1.387   3.735   0.084
 2920SOL    HW212555   1.262   3.738   0.188
 2921SOL     OW12556   1.300   4.177   0.691
 2921SOL    HW112557   1.241   4.257   0.695
 2921SOL    HW212558   1.315   4.142   0.784
 2922SOL     OW12559   0.039   4.801   0.300
 2922SOL    HW112560   0.138   4.790   0.291
 2922SOL    HW212561  -0.001   4.715   0.332
 2923SOL     OW12562   0.875   5.370   0.337
 2923SOL    HW112563   0.798   5.335   0.283
 2923SOL    HW212564   0.843   5.441   0.399
 2924SOL     OW12565   0.230   4.352   1.975
 2924SOL    HW112566   0.137   4.350   2.012
 2924SOL    HW212567   0.231   4.313   1.883
 2925SOL     OW12568   0.225   3.999   2.858
 2925SOL    HW112569   0.260   3.982   2.950
 2925SOL    HW212570   0.137   3.954   2.846
 2926SOL     OW12571   0.019   4.092   2.509
 2926SOL    HW112572  -0.063   4.135   2.548
 2926SOL    HW212573  -0.009   4.019   2.446
 2927SOL     OW12574   0.569   4.999   3.027
 2927SOL    HW112575   0.476   4.992   2.990
 2927SOL    HW212576   0.580   5.088   3.071
 2928SOL     OW12577   1.555   5.235   2.565
 2928SOL    HW112578   1.498   5.219   2.646
 2928SOL    HW212579   1.496   5.245   2.485
 2929SOL     OW12580   1.755   4.331   2.093
 2929SOL    HW112581   1.743   4.318   1.994
 2929SOL    HW212582   1.725   4.250   2.142
 2930SOL     OW12583   0.768   4.868   2.885
 2930SOL    HW112584   0.690   4.885   2.945
 2930SOL    HW212585   0.802   4.955   2.849
 2931SOL     OW12586   0.850   4.522   3.685
 2931SOL    HW112587   0.846   4.598   3.750
 2931SOL    HW212588   0.872   4.558   3.594
 2932SOL     OW12589   0.686   4.885   3.665
 2932SOL    HW112590   0.746   4.964   3.679
 2932SOL    HW212591   0.600   4.916   3.624
 2933SOL     OW12592   0.335   5.159   2.923
 2933SOL    HW112593   0.257   5.128   2.870
 2933SOL    HW212594   0.393   5.217   2.866
 2934SOL     OW12595   1.460   5.229   3.201
 2934SOL    HW112596   1.484   5.323   3.227
 2934SOL    HW212597   1.444   5.175   3.283
 2935SOL     OW12598   0.438   4.116   3.361
 2935SOL    HW112599   0.520   4.060   3.370
 2935SOL    HW212600   0.357   4.058   3.365
 2936SOL     OW12601   1.603   4.171   2.599
 2936SOL    HW112602   1.529   4.217   2.549
 2936SOL    HW212603   1.654   4.239   2.652
 2937SOL     OW12604   0.231   5.437   2.345
 2937SOL    HW112605   0.265   5.514   2.399
 2937SOL    HW212606   0.275   5.437   2.255
 2938SOL     OW12607   1.127   5.065   3.552
 2938SOL    HW112608   1.174   5.065   3.640
 2938SOL    HW212609   1.079   4.978   3.541
 2939SOL     OW12610   0.230   5.158   2.400
 2939SOL    HW112611   0.204   5.254   2.400
 2939SOL    HW212612   0.159   5.104   2.445
 2940SOL     OW12613   0.240   4.815   2.748
 2940SOL    HW112614   0.254   4.731   2.800
 2940SOL    HW212615   0.185   4.879   2.803
 2941SOL     OW12616   0.620   5.510   3.301
 2941SOL    HW112617   0.528   5.493   3.336
 2941SOL    HW212618   0.648   5.602   3.327
 2942SOL     OW12619   0.606   4.688   1.985
 2942SOL    HW112620   0.613   4.772   1.931
 2942SOL    HW212621   0.652   4.701   2.073
 2943SOL     OW12622   0.122   4.367   2.425
 2943SOL    HW112623   0.077   4.279   2.442
 2943SOL    HW212624   0.121   4.421   2.509
 2944SOL     OW12625   1.842   5.491   2.221
 2944SOL    HW112626   1.896   5.462   2.301
 2944SOL    HW212627   1.872   5.581   2.192
 2945SOL     OW12628   0.027   5.320   1.979
 2945SOL    HW112629   0.008   5.224   2.000
 2945SOL    HW212630  -0.006   5.378   2.054
 2946SOL     OW12631   1.689   4.646   2.474
 2946SOL    HW112632   1.784   4.617   2.482
 2946SOL    HW212633   1.681   4.711   2.399
 2947SOL     OW12634   1.641   4.832   2.294
 2947SOL    HW112635   1.727   4.834   2.242
 2947SOL    HW212636   1.655   4.879   2.382
 2948SOL     OW12637   0.113   4.461   3.459
 2948SOL    HW112638   0.201   4.448   3.504
 2948SOL    HW212639   0.100   4.558   3.437
 2949SOL     OW12640   1.293   4.952   3.285
 2949SOL    HW112641   1.330   4.879   3.227
 2949SOL    HW212642   1.345   4.957   3.370
 2950SOL     OW12643   0.197   4.700   3.126
 2950SOL    HW112644   0.286   4.655   3.112
 2950SOL    HW212645   0.124   4.635   3.107
 2951SOL     OW12646   1.525   4.723   2.052
 2951SOL    HW112647   1.462   4.647   2.065
 2951SOL    HW212648   1.573   4.741   2.138
 2952SOL     OW12649   1.187   5.516   3.478
 2952SOL    HW112650   1.211   5.576   3.402
 2952SOL    HW212651   1.194   5.421   3.448
 2953SOL     OW12652   0.317   3.975   3.663
 2953SOL    HW112653   0.388   4.046   3.669
 2953SOL    HW212654   0.229   4.014   3.691
 2954SOL     OW12655   1.466   5.141   2.815
 2954SOL    HW112656   1.407   5.147   2.895
 2954SOL    HW212657   1.451   5.053   2.769
 2955SOL     OW12658   1.667   5.438   2.434
 2955SOL    HW112659   1.626   5.415   2.346
 2955SOL    HW212660   1.649   5.364   2.499
 2956SOL     OW12661   0.598   4.453   2.132
 2956SOL    HW112662   0.622   4.522   2.064
 2956SOL    HW212663   0.520   4.486   2.186
 2957SOL     OW12664   1.281   4.069   2.806
 2957SOL    HW112665   1.195   4.019   2.793
 2957SOL    HW212666   1.343   4.015   2.862
 2958SOL     OW12667   1.576   5.386   2.169
 2958SOL    HW112668   1.665   5.432   2.172
 2958SOL    HW212669   1.555   5.362   2.074
 2959SOL     OW12670   0.807   4.329   3.327
 2959SOL    HW112671   0.760   4.326   3.416
 2959SOL    HW212672   0.756   4.274   3.261
 2960SOL     OW12673   1.394   4.193   3.536
 2960SOL    HW112674   1.374   4.236   3.624
 2960SOL    HW212675   1.472   4.131   3.545
 2961SOL     OW12676   0.973   4.614   3.434
 2961SOL    HW112677   1.019   4.530   3.405
 2961SOL    HW212678   0.917   4.648   3.359
 2962SOL     OW12679   0.991   4.134   3.104
 2962SOL    HW112680   0.914   4.168   3.158
 2962SOL    HW212681   0.957   4.083   3.025
 2963SOL     OW12682   1.041   4.425   2.291
 2963SOL    HW112683   1.067   4.421   2.387
 2963SOL    HW212684   0.956   4.374   2.277
 2964SOL     OW12685   0.076   4.535   2.651
 2964SOL    HW112686   0.175   4.523   2.660
 2964SOL    HW212687   0.052   4.630   2.672
 2965SOL     OW12688   0.130   5.545   3.433
 2965SOL    HW112689   0.120   5.530   3.532
 2965SOL    HW212690   0.044   5.581   3.397
 2966SOL     OW12691   0.865   4.072   2.057
 2966SOL    HW112692   0.924   4.135   2.008
 2966SOL    HW212693   0.884   3.978   2.028
 2967SOL     OW12694   1.719   4.309   3.693
 2967SOL    HW112695   1.693   4.398   3.657
 2967SOL    HW212696   1.717   4.241   3.620
 2968SOL     OW12697   1.008   5.180   2.339
 2968SOL    HW112698   0.962   5.252   2.287
 2968SOL    HW212699   1.004   5.200   2.437
 2969SOL     OW12700   0.351   5.525   2.715
 2969SOL    HW112701   0.401   5.439   2.721
 2969SOL    HW212702   0.416   5.602   2.712
 2970SOL     OW12703   1.795   4.790   2.735
 2970SOL    HW112704   1.733   4.775   2.659
 2970SOL    HW212705   1.743   4.801   2.820
 2971SOL     OW12706   1.227   5.274   3.368
 2971SOL    HW112707   1.233   5.197   3.432
 2971SOL    HW212708   1.175   5.248   3.288
 2972SOL     OW12709   0.321   4.667   2.104
 2972SOL    HW112710   0.403   4.706   2.062
 2972SOL    HW212711   0.294   4.585   2.055
 2973SOL     OW12712   1.458   4.459   2.590
 2973SOL    HW112713   1.453   4.394   2.665
 2973SOL    HW212714   1.538   4.518   2.603
 2974SOL     OW12715   1.111   5.500   2.099
 2974SOL    HW112716   1.051   5.438   2.149
 2974SOL    HW212717   1.142   5.456   2.014
 2975SOL     OW12718   0.202   4.009   3.360
 2975SOL    HW112719   0.122   4.069   3.347
 2975SOL    HW212720   0.192   3.960   3.446
 2976SOL     OW12721   1.632   5.101   1.943
 2976SOL    HW112722   1.600   5.195   1.933
 2976SOL    HW212723   1.556   5.038   1.931
 2977SOL     OW12724   0.464   5.467   2.185
 2977SOL    HW112725   0.497   5.506   2.271
 2977SOL    HW212726   0.540   5.460   2.120
 2978SOL     OW12727   1.400   3.831   2.288
 2978SOL    HW112728   1.376   3.794   2.198
 2978SOL    HW212729   1.499   3.847   2.292
 2979SOL     OW12730   0.249   5.509   3.103
 2979SOL    HW112731   0.306   5.444   3.153
 2979SOL    HW212732   0.233   5.476   3.010
 2980SOL     OW12733   0.940   5.422   2.766
 2980SOL    HW112734   1.020   5.365   2.787
 2980SOL    HW212735   0.891   5.382   2.689
 2981SOL     OW12736   0.382   4.424   2.342
 2981SOL    HW112737   0.427   4.334   2.339
 2981SOL    HW212738   0.288   4.413   2.375
 2982SOL     OW12739   1.547   3.946   3.591
 2982SOL    HW112740   1.542   3.983   3.683
 2982SOL    HW212741   1.475   3.877   3.579
 2983SOL     OW12742   0.614   3.846   1.979
 2983SOL    HW112743   0.712   3.824   1.986
 2983SOL    HW212744   0.583   3.829   1.886
 2984SOL     OW12745   0.781   3.988   3.611
 2984SOL    HW112746   0.848   3.927   3.654
 2984SOL    HW212747   0.708   4.007   3.676
 2985SOL     OW12748   0.888   5.238   3.057
 2985SOL    HW112749   0.865   5.213   2.963
 2985SOL    HW212750   0.949   5.169   3.096
 2986SOL     OW12751   0.922   4.227   2.761
 2986SOL    HW112752   0.897   4.218   2.665
 2986SOL    HW212753   0.970   4.145   2.792
 2987SOL     OW12754   0.539   3.788   2.374
 2987SOL    HW112755   0.458   3.789   2.432
 2987SOL    HW212756   0.542   3.871   2.319
 2988SOL     OW12757   1.434   4.912   1.903
 2988SOL    HW112758   1.466   4.836   1.960
 2988SOL    HW212759   1.342   4.939   1.933
 2989SOL     OW12760   0.297   3.759   2.033
 2989SOL    HW112761   0.346   3.843   2.012
 2989SOL    HW212762   0.359   3.694   2.078
 2990SOL     OW12763   0.935   3.960   2.342
 2990SOL    HW112764   0.887   4.001   2.264
 2990SOL    HW212765   1.034   3.958   2.323
 2991SOL     OW12766   1.076   4.407   3.326
 2991SOL    HW112767   0.996   4.346   3.329
 2991SOL    HW212768   1.157   4.354   3.302
 2992SOL     OW12769   1.227   5.294   2.655
 2992SOL    HW112770   1.248   5.368   2.590
 2992SOL    HW212771   1.295   5.294   2.728
 2993SOL     OW12772   1.271   5.521   2.453
 2993SOL    HW112773   1.315   5.585   2.389
 2993SOL    HW212774   1.221   5.573   2.523
 2994SOL     OW12775   1.032   4.273   1.878
 2994SOL    HW112776   0.991   4.355   1.839
 2994SOL    HW212777   1.096   4.299   1.951
 2995SOL     OW12778   0.078   4.280   3.248
 2995SOL    HW112779   0.170   4.279   3.207
 2995SOL    HW212780   0.072   4.354   3.315
 2996SOL     OW12781   0.866   4.178   2.504
 2996SOL    HW112782   0.834   4.250   2.442
 2996SOL    HW212783   0.890   4.097   2.451
 2997SOL     OW12784   1.017   3.763   2.615
 2997SOL    HW112785   0.945   3.768   2.546
 2997SOL    HW212786   0.993   3.694   2.684
 2998SOL     OW12787   1.857   4.557   2.239
 2998SOL    HW112788   1.899   4.493   2.303
 2998SOL    HW212789   1.819   4.506   2.161
 2999SOL     OW12790   0.488   5.109   2.036
 2999SOL    HW112791   0.401   5.094   2.083
 2999SOL    HW212792   0.471   5.135   1.941
 3000SOL     OW12793   1.664   5.004   2.519
 3000SOL    HW112794   1.763   5.012   2.533
 3000SOL    HW212795   1.619   5.088   2.550
 3001SOL     OW12796   1.390   4.299   1.940
 3001SOL    HW112797   1.336   4.278   2.021
 3001SOL    HW212798   1.481   4.258   1.949
 3002SOL     OW12799   0.527   3.980   2.190
 3002SOL    HW112800   0.554   3.921   2.115
 3002SOL    HW212801   0.527   4.075   2.159
 3003SOL     OW12802   1.754   4.947   3.450
 3003SOL    HW112803   1.845   4.908   3.437
 3003SOL    HW212804   1.762   5.043   3.474
 3004SOL     OW12805   1.064   5.071   3.202
 3004SOL    HW112806   0.984   5.048   3.257
 3004SOL    HW212807   1.147   5.045   3.251
 3005SOL     OW12808   1.592   5.353   3.487
 3005SOL    HW112809   1.619   5.387   3.397
 3005SOL    HW212810   1.671   5.315   3.533
 3006SOL     OW12811   1.111   4.919   2.962
 3006SOL    HW112812   1.071   4.963   3.043
 3006SOL    HW212813   1.070   4.956   2.879
 3007SOL     OW12814   1.638   4.823   2.941
 3007SOL    HW112815   1.643   4.904   3.000
 3007SOL    HW212816   1.552   4.825   2.890
 3008SOL     OW12817   0.915   3.813   3.264
 3008SOL    HW112818   0.940   3.793   3.169
 3008SOL    HW212819   0.987   3.869   3.306
 3009SOL     OW12820   0.980   4.840   3.581
 3009SOL    HW112821   0.881   4.846   3.591
 3009SOL    HW212822   1.003   4.760   3.525
 3010SOL     OW12823   0.705   4.774   2.230
 3010SOL    HW112824   0.691   4.781   2.329
 3010SOL    HW212825   0.789   4.723   2.212
 3011SOL     OW12826   0.410   4.537   3.113
 3011SOL    HW112827   0.496   4.549   3.163
 3011SOL    HW212828   0.368   4.450   3.140
 3012SOL     OW12829   1.274   4.110   3.124
 3012SOL    HW112830   1.295   4.184   3.188
 3012SOL    HW212831   1.185   4.127   3.081
 3013SOL     OW12832   0.064   5.288   3.193
 3013SOL    HW112833   0.018   5.370   3.159
 3013SOL    HW212834   0.162   5.307   3.202
 3014SOL     OW12835   0.367   4.824   2.363
 3014SOL    HW112836   0.360   4.907   2.307
 3014SOL    HW212837   0.371   4.744   2.303
 3015SOL     OW12838   1.272   5.169   3.004
 3015SOL    HW112839   1.319   5.182   3.091
 3015SOL    HW212840   1.206   5.095   3.013
 3016SOL     OW12841   1.582   4.363   2.334
 3016SOL    HW112842   1.551   4.424   2.407
 3016SOL    HW212843   1.632   4.415   2.265
 3017SOL     OW12844   0.354   5.234   3.191
 3017SOL    HW112845   0.333   5.190   3.104
 3017SOL    HW212846   0.451   5.260   3.194
 3018SOL     OW12847   0.402   4.475   3.460
 3018SOL    HW112848   0.470   4.530   3.413
 3018SOL    HW212849   0.442   4.387   3.487
 3019SOL     OW12850   1.013   3.829   3.632
 3019SOL    HW112851   1.019   3.914   3.580
 3019SOL    HW212852   1.045   3.753   3.575
 3020SOL     OW12853   0.504   3.774   3.602
 3020SOL    HW112854   0.462   3.717   3.532
 3020SOL    HW212855   0.438   3.843   3.634
 3021SOL     OW12856   1.360   4.586   2.907
 3021SOL    HW112857   1.285   4.586   2.841
 3021SOL    HW212858   1.397   4.494   2.916
 3022SOL     OW12859   1.209   4.249   2.137
 3022SOL    HW112860   1.222   4.165   2.191
 3022SOL    HW212861   1.180   4.323   2.197
 3023SOL     OW12862   0.307   3.937   3.093
 3023SOL    HW112863   0.284   3.974   3.183
 3023SOL    HW212864   0.277   3.842   3.087
 3024SOL     OW12865   0.037   5.034   3.144
 3024SOL    HW112866   0.090   4.985   3.212
 3024SOL    HW212867   0.059   5.132   3.149
 3025SOL     OW12868   1.728   4.659   3.716
 3025SOL    HW112869   1.682   4.652   3.627
 3025SOL    HW212870   1.666   4.703   3.782
 3026SOL     OW12871   0.307   3.787   2.480
 3026SOL    HW112872   0.296   3.881   2.513
 3026SOL    HW212873   0.302   3.724   2.557
 3027SOL     OW12874   1.622   4.091   2.236
 3027SOL    HW112875   1.624   4.015   2.300
 3027SOL    HW212876   1.574   4.168   2.276
 3028SOL     OW12877   0.980   5.297   3.562
 3028SOL    HW112878   0.960   5.341   3.474
 3028SOL    HW212879   1.019   5.206   3.546
 3029SOL     OW12880   1.859   5.242   3.467
 3029SOL    HW112881   1.873   5.269   3.372
 3029SOL    HW212882   1.942   5.264   3.520
 3030SOL     OW12883   0.350   4.622   3.666
 3030SOL    HW112884   0.426   4.666   3.714
 3030SOL    HW212885   0.385   4.575   3.584
 3031SOL     OW12886   1.540   3.998   1.987
 3031SOL    HW112887   1.479   3.923   2.010
 3031SOL    HW212888   1.562   4.050   2.070
 3032SOL     OW12889   1.303   4.562   1.904
 3032SOL    HW112890   1.337   4.469   1.919
 3032SOL    HW212891   1.321   4.589   1.809
 3033SOL     OW12892   0.319   4.534   2.811
 3033SOL    HW112893   0.412   4.570   2.816
 3033SOL    HW212894   0.313   4.449   2.863
 3034SOL     OW12895   0.339   4.233   2.868
 3034SOL    HW112896   0.287   4.150   2.851
 3034SOL    HW212897   0.416   4.238   2.804
 3035SOL     OW12898   1.138   4.104   3.540
 3035SOL    HW112899   1.093   4.167   3.604
 3035SOL    HW212900   1.231   4.135   3.523
 3036SOL     OW12901   1.160   3.931   3.339
 3036SOL    HW112902   1.160   3.995   3.416
 3036SOL    HW212903   1.188   3.979   3.256
 3037SOL     OW12904   0.008   5.050   2.062
 3037SOL    HW112905  -0.085   5.071   2.031
 3037SOL    HW212906   0.018   4.951   2.075
 3038SOL     OW12907   0.088   5.525   2.789
 3038SOL    HW112908   0.046   5.439   2.762
 3038SOL    HW212909   0.182   5.528   2.755
 3039SOL     OW12910   0.504   5.292   2.772
 3039SOL    HW112911   0.570   5.366   2.781
 3039SOL    HW212912   0.548   5.213   2.730
 3040SOL     OW12913   0.040   4.268   2.976
 3040SOL    HW112914   0.125   4.235   2.935
 3040SOL    HW212915   0.053   4.283   3.074
 3041SOL     OW12916   0.189   4.244   3.584
 3041SOL    HW112917   0.248   4.204   3.514
 3041SOL    HW212918   0.131   4.315   3.543
 3042SOL     OW12919   0.815   4.296   2.187
 3042SOL    HW112920   0.822   4.207   2.141
 3042SOL    HW212921   0.721   4.330   2.179
 3043SOL     OW12922   0.930   5.402   3.327
 3043SOL    HW112923   0.906   5.384   3.232
 3043SOL    HW212924   0.960   5.496   3.337
 3044SOL     OW12925   0.473   4.224   2.053
 3044SOL    HW112926   0.534   4.304   2.057
 3044SOL    HW212927   0.378   4.255   2.060
 3045SOL     OW12928   0.159   4.861   3.328
 3045SOL    HW112929   0.181   4.800   3.404
 3045SOL    HW212930   0.169   4.812   3.242
 3046SOL     OW12931   1.347   4.783   3.096
 3046SOL    HW112932   1.371   4.720   3.022
 3046SOL    HW212933   1.257   4.823   3.078
 3047SOL     OW12934   1.302   4.579   2.171
 3047SOL    HW112935   1.216   4.548   2.213
 3047SOL    HW212936   1.298   4.565   2.072
 3048SOL     OW12937   1.759   5.471   3.016
 3048SOL    HW112938   1.820   5.501   2.943
 3048SOL    HW212939   1.721   5.382   2.994
 3049SOL     OW12940   1.252   5.455   2.990
 3049SOL    HW112941   1.336   5.460   2.936
 3049SOL    HW212942   1.229   5.359   3.008
 3050SOL     OW12943   0.083   4.982   2.884
 3050SOL    HW112944   0.078   4.981   2.984
 3050SOL    HW212945   0.000   4.941   2.846
 3051SOL     OW12946   0.688   5.386   3.578
 3051SOL    HW112947   0.632   5.467   3.587
 3051SOL    HW212948   0.740   5.390   3.492
 3052SOL     OW12949   1.726   3.859   2.385
 3052SOL    HW112950   1.799   3.842   2.318
 3052SOL    HW212951   1.695   3.772   2.423
 3053SOL     OW12952   1.388   5.297   2.339
 3053SOL    HW112953   1.455   5.309   2.265
 3053SOL    HW212954   1.348   5.386   2.362
 3054SOL     OW12955   0.830   4.997   3.284
 3054SOL    HW112956   0.825   5.030   3.379
 3054SOL    HW212957   0.744   5.016   3.238
 3055SOL     OW12958   0.672   5.340   2.016
 3055SOL    HW112959   0.681   5.350   1.917
 3055SOL    HW212960   0.632   5.251   2.037
 3056SOL     OW12961   1.650   5.444   3.256
 3056SOL    HW112962   1.703   5.454   3.172
 3056SOL    HW212963   1.623   5.534   3.290
 3057SOL     OW12964   1.841   3.899   2.825
 3057SOL    HW112965   1.880   3.814   2.789
 3057SOL    HW212966   1.743   3.901   2.806
 3058SOL     OW12967   0.263   4.050   2.582
 3058SOL    HW112968   0.184   4.101   2.548
 3058SOL    HW212969   0.254   4.035   2.680
 3059SOL     OW12970   1.194   5.336   1.893
 3059SOL    HW112971   1.200   5.243   1.930
 3059SOL    HW212972   1.135   5.336   1.813
 3060SOL     OW12973   0.822   4.726   3.234
 3060SOL    HW112974   0.862   4.725   3.142
 3060SOL    HW212975   0.832   4.818   3.274
 3061SOL     OW12976   0.916   4.634   2.153
 3061SOL    HW112977   0.979   4.672   2.085
 3061SOL    HW212978   0.956   4.551   2.192
 3062SOL     OW12979   1.504   5.331   1.906
 3062SOL    HW112980   1.412   5.368   1.913
 3062SOL    HW212981   1.542   5.351   1.816
 3063SOL     OW12982   1.614   5.016   3.151
 3063SOL    HW112983   1.674   5.019   3.231
 3063SOL    HW212984   1.539   5.080   3.164
 3064SOL     OW12985   0.590   5.211   2.353
 3064SOL    HW112986   0.632   5.153   2.283
 3064SOL    HW212987   0.546   5.290   2.309
 3065SOL     OW12988   1.709   4.109   3.243
 3065SOL    HW112989   1.782   4.178   3.247
 3065SOL    HW212990   1.737   4.034   3.184
 3066SOL     OW12991   0.255   5.072   2.152
 3066SOL    HW112992   0.159   5.073   2.125
 3066SOL    HW212993   0.267   5.125   2.236
 3067SOL     OW12994   0.105   4.737   3.588
 3067SOL    HW112995   0.028   4.704   3.642
 3067SOL    HW212996   0.190   4.707   3.630
 3068SOL     OW12997   0.672   3.927   3.351
 3068SOL    HW112998   0.762   3.911   3.311
 3068SOL    HW212999   0.680   3.932   3.450
 3069SOL     OW13000   0.075   4.069   1.895
 3069SOL    HW113001  -0.017   4.041   1.866
 3069SOL    HW213002   0.106   4.146   1.839
 3070SOL     OW13003   0.072   3.890   2.180
 3070SOL    HW113004   0.055   3.973   2.126
 3070SOL    HW213005   0.162   3.853   2.158
 3071SOL     OW13006   1.183   5.059   1.981
 3071SOL    HW113007   1.084   5.048   1.983
 3071SOL    HW213008   1.217   5.074   2.074
 3072SOL     OW13009   0.613   4.566   3.293
 3072SOL    HW113010   0.669   4.647   3.276
 3072SOL    HW213011   0.672   4.486   3.296
 3073SOL     OW13012   1.493   5.491   2.821
 3073SOL    HW113013   1.526   5.555   2.752
 3073SOL    HW213014   1.559   5.485   2.896
 3074SOL     OW13015   0.716   4.289   3.570
 3074SOL    HW113016   0.735   4.354   3.644
 3074SOL    HW213017   0.776   4.209   3.579
 3075SOL     OW13018   1.450   4.944   3.495
 3075SOL    HW113019   1.441   4.934   3.594
 3075SOL    HW213020   1.546   4.937   3.469
 3076SOL     OW13021   1.225   4.049   2.311
 3076SOL    HW113022   1.290   3.975   2.300
 3076SOL    HW213023   1.245   4.099   2.395
 3077SOL     OW13024   0.594   4.469   2.514
 3077SOL    HW113025   0.644   4.554   2.495
 3077SOL    HW213026   0.506   4.471   2.466
 3078SOL     OW13027   1.777   4.066   3.504
 3078SOL    HW113028   1.760   4.097   3.410
 3078SOL    HW213029   1.693   4.029   3.542
 3079SOL     OW13030   1.730   4.658   3.379
 3079SOL    HW113031   1.768   4.749   3.394
 3079SOL    HW213032   1.722   4.641   3.280
 3080SOL     OW13033   0.859   5.098   1.878
 3080SOL    HW113034   0.813   5.113   1.966
 3080SOL    HW213035   0.903   5.183   1.848
 3081SOL     OW13036   0.661   5.514   2.815
 3081SOL    HW113037   0.615   5.602   2.802
 3081SOL    HW213038   0.760   5.526   2.808
 3082SOL     OW13039   1.083   4.708   1.949
 3082SOL    HW113040   1.060   4.761   1.867
 3082SOL    HW213041   1.164   4.652   1.930
 3083SOL     OW13042   1.861   5.293   2.713
 3083SOL    HW113043   1.790   5.281   2.643
 3083SOL    HW213044   1.862   5.214   2.773
 3084SOL     OW13045   0.079   4.964   2.515
 3084SOL    HW113046   0.078   4.917   2.603
 3084SOL    HW213047   0.161   4.936   2.464
 3085SOL     OW13048   0.672   5.115   3.486
 3085SOL    HW113049   0.594   5.065   3.524
 3085SOL    HW213050   0.669   5.210   3.517
 3086SOL     OW13051   1.824   3.916   3.089
 3086SOL    HW113052   1.820   3.826   3.133
 3086SOL    HW213053   1.827   3.905   2.990
 3087SOL     OW13054   0.428   4.148   2.382
 3087SOL    HW113055   0.458   4.076   2.320
 3087SOL    HW213056   0.389   4.108   2.465
 3088SOL     OW13057   1.705   5.211   2.966
 3088SOL    HW113058   1.612   5.186   2.939
 3088SOL    HW213059   1.731   5.161   3.048
 3089SOL     OW13060   0.317   4.271   3.142
 3089SOL    HW113061   0.355   4.212   3.214
 3089SOL    HW213062   0.357   4.245   3.054
 3090SOL     OW13063   1.001   3.758   3.016
 3090SOL    HW113064   0.938   3.686   2.985
 3090SOL    HW213065   1.094   3.722   3.016
 3091SOL     OW13066   0.770   5.054   2.163
 3091SOL    HW113067   0.724   4.967   2.180
 3091SOL    HW213068   0.861   5.051   2.204
 3092SOL     OW13069   0.618   5.291   3.146
 3092SOL    HW113070   0.613   5.373   3.203
 3092SOL    HW213071   0.707   5.288   3.101
 3093SOL     OW13072   1.352   3.776   2.030
 3093SOL    HW113073   1.387   3.735   1.946
 3093SOL    HW213074   1.262   3.738   2.050
 3094SOL     OW13075   1.300   4.177   2.553
 3094SOL    HW113076   1.241   4.257   2.557
 3094SOL    HW213077   1.315   4.142   2.646
 3095SOL     OW13078   1.593   3.945   2.744
 3095SOL    HW113079   1.509   3.944   2.798
 3095SOL    HW213080   1.595   4.028   2.688
 3096SOL     OW13081   0.039   4.801   2.162
 3096SOL    HW113082   0.138   4.790   2.153
 3096SOL    HW213083  -0.001   4.715   2.194
 3097SOL     OW13084   0.875   5.370   2.199
 3097SOL    HW113085   0.798   5.335   2.145
 3097SOL    HW213086   0.843   5.441   2.261
 3098SOL     OW13087   0.230   4.352   3.837
 3098SOL    HW113088   0.137   4.350   3.874
 3098SOL    HW213089   0.231   4.313   3.745
 3099SOL     OW13090   0.225   3.999   4.720
 3099SOL    HW113091   0.260   3.982   4.812
 3099SOL    HW213092   0.137   3.954   4.708
 3100SOL     OW13093   0.019   4.092   4.371
 3100SOL    HW113094  -0.063   4.135   4.410
 3100SOL    HW213095  -0.009   4.019   4.308
 3101SOL     OW13096   0.569   4.999   4.889
 3101SOL    HW113097   0.476   4.992   4.852
 3101SOL    HW213098   0.580   5.088   4.933
 3102SOL     OW13099   1.555   5.235   4.427
 3102SOL    HW113100   1.498   5.219   4.508
 3102SOL    HW213101   1.496   5.245   4.347
 3103SOL     OW13102   1.135   4.427   4.441
 3103SOL    HW113103   1.192   4.505   4.416
 3103SOL    HW213104   1.075   4.453   4.517
 3104SOL     OW13105   1.755   4.331   3.955
 3104SOL    HW113106   1.743   4.318   3.856
 3104SOL    HW213107   1.725   4.250   4.004
 3105SOL     OW13108   0.768   4.868   4.747
 3105SOL    HW113109   0.690   4.885   4.807
 3105SOL    HW213110   0.802   4.955   4.711
 3106SOL     OW13111   0.685   4.736   4.389
 3106SOL    HW113112   0.754   4.720   4.459
 3106SOL    HW213113   0.612   4.793   4.427
 3107SOL     OW13114   0.686   4.885   5.527
 3107SOL    HW113115   0.746   4.964   5.541
 3107SOL    HW213116   0.600   4.916   5.486
 3108SOL     OW13117   0.335   5.159   4.785
 3108SOL    HW113118   0.257   5.128   4.732
 3108SOL    HW213119   0.393   5.217   4.728
 3109SOL     OW13120   1.460   5.229   5.063
 3109SOL    HW113121   1.484   5.323   5.089
 3109SOL    HW213122   1.444   5.175   5.145
 3110SOL     OW13123   0.438   4.116   5.223
 3110SOL    HW113124   0.520   4.060   5.232
 3110SOL    HW213125   0.357   4.058   5.227
 3111SOL     OW13126   1.603   4.171   4.461
 3111SOL    HW113127   1.529   4.217   4.411
 3111SOL    HW213128   1.654   4.239   4.514
 3112SOL     OW13129   0.231   5.437   4.207
 3112SOL    HW113130   0.265   5.514   4.261
 3112SOL    HW213131   0.275   5.437   4.117
 3113SOL     OW13132   1.127   5.065   5.414
 3113SOL    HW113133   1.174   5.065   5.502
 3113SOL    HW213134   1.079   4.978   5.403
 3114SOL     OW13135   0.230   5.158   4.262
 3114SOL    HW113136   0.204   5.254   4.262
 3114SOL    HW213137   0.159   5.104   4.307
 3115SOL     OW13138   0.240   4.815   4.610
 3115SOL    HW113139   0.254   4.731   4.662
 3115SOL    HW213140   0.185   4.879   4.665
 3116SOL     OW13141   0.620   5.510   5.163
 3116SOL    HW113142   0.528   5.493   5.198
 3116SOL    HW213143   0.648   5.602   5.189
 3117SOL     OW13144   0.606   4.688   3.847
 3117SOL    HW113145   0.613   4.772   3.793
 3117SOL    HW213146   0.652   4.701   3.935
 3118SOL     OW13147   1.594   3.838   5.204
 3118SOL    HW113148   1.576   3.905   5.132
 3118SOL    HW213149   1.591   3.884   5.293
 3119SOL     OW13150   0.122   4.367   4.287
 3119SOL    HW113151   0.077   4.279   4.304
 3119SOL    HW213152   0.121   4.421   4.371
 3120SOL     OW13153   1.689   4.646   4.336
 3120SOL    HW113154   1.784   4.617   4.344
 3120SOL    HW213155   1.681   4.711   4.261
 3121SOL     OW13156   1.641   4.832   4.156
 3121SOL    HW113157   1.727   4.834   4.104
 3121SOL    HW213158   1.655   4.879   4.244
 3122SOL     OW13159   0.613   5.089   4.450
 3122SOL    HW113160   0.564   5.002   4.459
 3122SOL    HW213161   0.590   5.132   4.363
 3123SOL     OW13162   1.293   4.952   5.147
 3123SOL    HW113163   1.330   4.879   5.089
 3123SOL    HW213164   1.345   4.957   5.232
 3124SOL     OW13165   0.809   3.728   4.226
 3124SOL    HW113166   0.849   3.819   4.217
 3124SOL    HW213167   0.709   3.736   4.232
 3125SOL     OW13168   1.525   4.723   3.914
 3125SOL    HW113169   1.462   4.647   3.927
 3125SOL    HW213170   1.573   4.741   4.000
 3126SOL     OW13171   0.317   3.975   5.525
 3126SOL    HW113172   0.388   4.046   5.531
 3126SOL    HW213173   0.229   4.014   5.553
 3127SOL     OW13174   1.466   5.141   4.677
 3127SOL    HW113175   1.407   5.147   4.757
 3127SOL    HW213176   1.451   5.053   4.631
 3128SOL     OW13177   1.667   5.438   4.296
 3128SOL    HW113178   1.626   5.415   4.208
 3128SOL    HW213179   1.649   5.364   4.361
 3129SOL     OW13180   0.598   4.453   3.994
 3129SOL    HW113181   0.622   4.522   3.926
 3129SOL    HW213182   0.520   4.486   4.048
 3130SOL     OW13183   1.281   4.069   4.668
 3130SOL    HW113184   1.195   4.019   4.655
 3130SOL    HW213185   1.343   4.015   4.724
 3131SOL     OW13186   1.576   5.386   4.031
 3131SOL    HW113187   1.665   5.432   4.034
 3131SOL    HW213188   1.555   5.362   3.936
 3132SOL     OW13189   1.394   4.193   5.398
 3132SOL    HW113190   1.374   4.236   5.486
 3132SOL    HW213191   1.472   4.131   5.407
 3133SOL     OW13192   0.991   4.134   4.966
 3133SOL    HW113193   0.914   4.168   5.020
 3133SOL    HW213194   0.957   4.083   4.887
 3134SOL     OW13195   1.041   4.425   4.153
 3134SOL    HW113196   1.067   4.421   4.249
 3134SOL    HW213197   0.956   4.374   4.139
 3135SOL     OW13198   0.076   4.535   4.513
 3135SOL    HW113199   0.175   4.523   4.522
 3135SOL    HW213200   0.052   4.630   4.534
 3136SOL     OW13201   0.130   5.545   5.295
 3136SOL    HW113202   0.120   5.530   5.394
 3136SOL    HW213203   0.044   5.581   5.259
 3137SOL     OW13204   0.865   4.072   3.919
 3137SOL    HW113205   0.924   4.135   3.870
 3137SOL    HW213206   0.884   3.978   3.890
 3138SOL     OW13207   1.719   4.309   5.555
 3138SOL    HW113208   1.693   4.398   5.519
 3138SOL    HW213209   1.717   4.241   5.482
 3139SOL     OW13210   1.362   4.868   4.269
 3139SOL    HW113211   1.445   4.839   4.221
 3139SOL    HW213212   1.313   4.935   4.213
 3140SOL     OW13213   0.550   3.920   4.609
 3140SOL    HW113214   0.545   3.915   4.709
 3140SOL    HW213215   0.552   4.016   4.580
 3141SOL     OW13216   1.008   5.180   4.201
 3141SOL    HW113217   0.962   5.252   4.149
 3141SOL    HW213218   1.004   5.200   4.299
 3142SOL     OW13219   0.351   5.525   4.577
 3142SOL    HW113220   0.401   5.439   4.583
 3142SOL    HW213221   0.416   5.602   4.574
 3143SOL     OW13222   1.795   4.790   4.597
 3143SOL    HW113223   1.733   4.775   4.521
 3143SOL    HW213224   1.743   4.801   4.682
 3144SOL     OW13225   1.227   5.274   5.230
 3144SOL    HW113226   1.233   5.197   5.294
 3144SOL    HW213227   1.175   5.248   5.150
 3145SOL     OW13228   0.321   4.667   3.966
 3145SOL    HW113229   0.403   4.706   3.924
 3145SOL    HW213230   0.294   4.585   3.917
 3146SOL     OW13231   1.458   4.459   4.452
 3146SOL    HW113232   1.453   4.394   4.527
 3146SOL    HW213233   1.538   4.518   4.465
 3147SOL     OW13234   0.461   4.990   5.451
 3147SOL    HW113235   0.411   4.991   5.365
 3147SOL    HW213236   0.398   4.972   5.527
 3148SOL     OW13237   1.111   5.500   3.961
 3148SOL    HW113238   1.051   5.438   4.011
 3148SOL    HW213239   1.142   5.456   3.876
 3149SOL     OW13240   0.202   4.009   5.222
 3149SOL    HW113241   0.122   4.069   5.209
 3149SOL    HW213242   0.192   3.960   5.308
 3150SOL     OW13243   1.632   5.101   3.805
 3150SOL    HW113244   1.600   5.195   3.795
 3150SOL    HW213245   1.556   5.038   3.793
 3151SOL     OW13246   0.464   5.467   4.047
 3151SOL    HW113247   0.497   5.506   4.133
 3151SOL    HW213248   0.540   5.460   3.982
 3152SOL     OW13249   1.400   3.831   4.150
 3152SOL    HW113250   1.376   3.794   4.060
 3152SOL    HW213251   1.499   3.847   4.154
 3153SOL     OW13252   0.249   5.509   4.965
 3153SOL    HW113253   0.306   5.444   5.015
 3153SOL    HW213254   0.233   5.476   4.872
 3154SOL     OW13255   0.940   5.422   4.628
 3154SOL    HW113256   1.020   5.365   4.649
 3154SOL    HW213257   0.891   5.382   4.551
 3155SOL     OW13258   0.382   4.424   4.204
 3155SOL    HW113259   0.427   4.334   4.201
 3155SOL    HW213260   0.288   4.413   4.237
 3156SOL     OW13261   1.547   3.946   5.453
 3156SOL    HW113262   1.542   3.983   5.545
 3156SOL    HW213263   1.475   3.877   5.441
 3157SOL     OW13264   0.614   3.846   3.841
 3157SOL    HW113265   0.712   3.824   3.848
 3157SOL    HW213266   0.583   3.829   3.748
 3158SOL     OW13267   0.781   3.988   5.473
 3158SOL    HW113268   0.848   3.927   5.516
 3158SOL    HW213269   0.708   4.007   5.538
 3159SOL     OW13270   0.888   5.238   4.919
 3159SOL    HW113271   0.865   5.213   4.825
 3159SOL    HW213272   0.949   5.169   4.958
 3160SOL     OW13273   1.351   4.314   5.157
 3160SOL    HW113274   1.379   4.271   5.242
 3160SOL    HW213275   1.376   4.410   5.158
 3161SOL     OW13276   0.803   5.126   4.648
 3161SOL    HW113277   0.893   5.140   4.606
 3161SOL    HW213278   0.732   5.128   4.577
 3162SOL     OW13279   0.922   4.227   4.623
 3162SOL    HW113280   0.897   4.218   4.527
 3162SOL    HW213281   0.970   4.145   4.654
 3163SOL     OW13282   0.539   3.788   4.236
 3163SOL    HW113283   0.458   3.789   4.294
 3163SOL    HW213284   0.542   3.871   4.181
 3164SOL     OW13285   1.434   4.912   3.765
 3164SOL    HW113286   1.466   4.836   3.822
 3164SOL    HW213287   1.342   4.939   3.795
 3165SOL     OW13288   0.297   3.759   3.895
 3165SOL    HW113289   0.346   3.843   3.874
 3165SOL    HW213290   0.359   3.694   3.940
 3166SOL     OW13291   0.935   3.960   4.204
 3166SOL    HW113292   0.887   4.001   4.126
 3166SOL    HW213293   1.034   3.958   4.185
 3167SOL     OW13294   1.076   4.407   5.188
 3167SOL    HW113295   0.996   4.346   5.191
 3167SOL    HW213296   1.157   4.354   5.164
 3168SOL     OW13297   1.227   5.294   4.517
 3168SOL    HW113298   1.248   5.368   4.452
 3168SOL    HW213299   1.295   5.294   4.590
 3169SOL     OW13300   0.459   4.876   4.465
 3169SOL    HW113301   0.388   4.849   4.530
 3169SOL    HW213302   0.433   4.848   4.372
 3170SOL     OW13303   1.271   5.521   4.315
 3170SOL    HW113304   1.315   5.585   4.251
 3170SOL    HW213305   1.221   5.573   4.385
 3171SOL     OW13306   1.032   4.273   3.740
 3171SOL    HW113307   0.991   4.355   3.701
 3171SOL    HW213308   1.096   4.299   3.813
 3172SOL     OW13309   0.078   4.280   5.110
 3172SOL    HW113310   0.170   4.279   5.069
 3172SOL    HW213311   0.072   4.354   5.177
 3173SOL     OW13312   0.866   4.178   4.366
 3173SOL    HW113313   0.834   4.250   4.304
 3173SOL    HW213314   0.890   4.097   4.313
 3174SOL     OW13315   1.017   3.763   4.477
 3174SOL    HW113316   0.945   3.768   4.408
 3174SOL    HW213317   0.993   3.694   4.546
 3175SOL     OW13318   1.429   4.897   4.591
 3175SOL    HW113319   1.374   4.813   4.584
 3175SOL    HW213320   1.455   4.926   4.499
 3176SOL     OW13321   1.466   4.314   4.716
 3176SOL    HW113322   1.436   4.219   4.723
 3176SOL    HW213323   1.539   4.330   4.782
 3177SOL     OW13324   1.857   4.557   4.101
 3177SOL    HW113325   1.899   4.493   4.165
 3177SOL    HW213326   1.819   4.506   4.023
 3178SOL     OW13327   0.488   5.109   3.898
 3178SOL    HW113328   0.401   5.094   3.945
 3178SOL    HW213329   0.471   5.135   3.803
 3179SOL     OW13330   1.664   5.004   4.381
 3179SOL    HW113331   1.763   5.012   4.395
 3179SOL    HW213332   1.619   5.088   4.412
 3180SOL     OW13333   1.390   4.299   3.802
 3180SOL    HW113334   1.336   4.278   3.883
 3180SOL    HW213335   1.481   4.258   3.811
 3181SOL     OW13336   0.527   3.980   4.052
 3181SOL    HW113337   0.554   3.921   3.977
 3181SOL    HW213338   0.527   4.075   4.021
 3182SOL     OW13339   1.064   5.071   5.064
 3182SOL    HW113340   0.984   5.048   5.119
 3182SOL    HW213341   1.147   5.045   5.113
 3183SOL     OW13342   1.592   5.353   5.349
 3183SOL    HW113343   1.619   5.387   5.259
 3183SOL    HW213344   1.671   5.315   5.395
 3184SOL     OW13345   1.111   4.919   4.824
 3184SOL    HW113346   1.071   4.963   4.905
 3184SOL    HW213347   1.070   4.956   4.741
 3185SOL     OW13348   1.638   4.823   4.803
 3185SOL    HW113349   1.643   4.904   4.862
 3185SOL    HW213350   1.552   4.825   4.752
 3186SOL     OW13351   0.705   4.774   4.092
 3186SOL    HW113352   0.691   4.781   4.191
 3186SOL    HW213353   0.789   4.723   4.074
 3187SOL     OW13354   1.274   4.110   4.986
 3187SOL    HW113355   1.295   4.184   5.050
 3187SOL    HW213356   1.185   4.127   4.943
 3188SOL     OW13357   0.064   5.288   5.055
 3188SOL    HW113358   0.018   5.370   5.021
 3188SOL    HW213359   0.162   5.307   5.064
 3189SOL     OW13360   0.367   4.824   4.225
 3189SOL    HW113361   0.360   4.907   4.169
 3189SOL    HW213362   0.371   4.744   4.165
 3190SOL     OW13363   0.566   4.261   4.589
 3190SOL    HW113364   0.578   4.327   4.515
 3190SOL    HW213365   0.612   4.295   4.672
 3191SOL     OW13366   1.252   5.072   4.112
 3191SOL    HW113367   1.302   5.149   4.152
 3191SOL    HW213368   1.157   5.074   4.144
 3192SOL     OW13369   1.272   5.169   4.866
 3192SOL    HW113370   1.319   5.182   4.953
 3192SOL    HW213371   1.206   5.095   4.875
 3193SOL     OW13372   1.582   4.363   4.196
 3193SOL    HW113373   1.551   4.424   4.269
 3193SOL    HW213374   1.632   4.415   4.127
 3194SOL     OW13375   0.354   5.234   5.053
 3194SOL    HW113376   0.333   5.190   4.966
 3194SOL    HW213377   0.451   5.260   5.056
 3195SOL     OW13378   1.013   3.829   5.494
 3195SOL    HW113379   1.019   3.914   5.442
 3195SOL    HW213380   1.045   3.753   5.437
 3196SOL     OW13381   0.504   3.774   5.464
 3196SOL    HW113382   0.462   3.717   5.394
 3196SOL    HW213383   0.438   3.843   5.496
 3197SOL     OW13384   0.573   4.594   4.753
 3197SOL    HW113385   0.617   4.683   4.744
 3197SOL    HW213386   0.510   4.594   4.830
 3198SOL     OW13387   1.360   4.586   4.769
 3198SOL    HW113388   1.285   4.586   4.703
 3198SOL    HW213389   1.397   4.494   4.778
 3199SOL     OW13390   1.209   4.249   3.999
 3199SOL    HW113391   1.222   4.165   4.053
 3199SOL    HW213392   1.180   4.323   4.059
 3200SOL     OW13393   0.307   3.937   4.955
 3200SOL    HW113394   0.284   3.974   5.045
 3200SOL    HW213395   0.277   3.842   4.949
 3201SOL     OW13396   0.037   5.034   5.006
 3201SOL    HW113397   0.090   4.985   5.074
 3201SOL    HW213398   0.059   5.132   5.011
 3202SOL     OW13399   0.732   4.358   4.788
 3202SOL    HW113400   0.791   4.332   4.712
 3202SOL    HW213401   0.704   4.454   4.777
 3203SOL     OW13402   0.307   3.787   4.342
 3203SOL    HW113403   0.296   3.881   4.375
 3203SOL    HW213404   0.302   3.724   4.419
 3204SOL     OW13405   1.622   4.091   4.098
 3204SOL    HW113406   1.624   4.015   4.162
 3204SOL    HW213407   1.574   4.168   4.138
 3205SOL     OW13408   1.023   4.490   4.690
 3205SOL    HW113409   1.038   4.511   4.786
 3205SOL    HW213410   0.993   4.395   4.681
 3206SOL     OW13411   0.980   5.297   5.424
 3206SOL    HW113412   0.960   5.341   5.336
 3206SOL    HW213413   1.019   5.206   5.408
 3207SOL     OW13414   1.859   5.242   5.329
 3207SOL    HW113415   1.873   5.269   5.234
 3207SOL    HW213416   1.942   5.264   5.382
 3208SOL     OW13417   0.350   4.622   5.528
 3208SOL    HW113418   0.426   4.666   5.576
 3208SOL    HW213419   0.385   4.575   5.446
 3209SOL     OW13420   1.540   3.998   3.849
 3209SOL    HW113421   1.479   3.923   3.872
 3209SOL    HW213422   1.562   4.050   3.932
 3210SOL     OW13423   1.303   4.562   3.766
 3210SOL    HW113424   1.337   4.469   3.781
 3210SOL    HW213425   1.321   4.589   3.671
 3211SOL     OW13426   1.068   5.057   4.573
 3211SOL    HW113427   1.075   4.973   4.518
 3211SOL    HW213428   1.130   5.126   4.537
 3212SOL     OW13429   0.319   4.534   4.673
 3212SOL    HW113430   0.412   4.570   4.678
 3212SOL    HW213431   0.313   4.449   4.725
 3213SOL     OW13432   0.339   4.233   4.730
 3213SOL    HW113433   0.287   4.150   4.713
 3213SOL    HW213434   0.416   4.238   4.666
 3214SOL     OW13435   1.138   4.104   5.402
 3214SOL    HW113436   1.093   4.167   5.466
 3214SOL    HW213437   1.231   4.135   5.385
 3215SOL     OW13438   1.160   3.931   5.201
 3215SOL    HW113439   1.160   3.995   5.278
 3215SOL    HW213440   1.188   3.979   5.118
 3216SOL     OW13441   0.008   5.050   3.924
 3216SOL    HW113442  -0.085   5.071   3.893
 3216SOL    HW213443   0.018   4.951   3.937
 3217SOL     OW13444   0.088   5.525   4.651
 3217SOL    HW113445   0.046   5.439   4.624
 3217SOL    HW213446   0.182   5.528   4.617
 3218SOL     OW13447   0.504   5.292   4.634
 3218SOL    HW113448   0.570   5.366   4.643
 3218SOL    HW213449   0.548   5.213   4.592
 3219SOL     OW13450   1.002   4.520   4.962
 3219SOL    HW113451   1.043   4.488   5.048
 3219SOL    HW213452   0.906   4.493   4.959
 3220SOL     OW13453   0.040   4.268   4.838
 3220SOL    HW113454   0.125   4.235   4.797
 3220SOL    HW213455   0.053   4.283   4.936
 3221SOL     OW13456   0.189   4.244   5.446
 3221SOL    HW113457   0.248   4.204   5.376
 3221SOL    HW213458   0.131   4.315   5.405
 3222SOL     OW13459   1.369   4.674   5.384
 3222SOL    HW113460   1.408   4.763   5.404
 3222SOL    HW213461   1.379   4.654   5.287
 3223SOL     OW13462   0.815   4.296   4.049
 3223SOL    HW113463   0.822   4.207   4.003
 3223SOL    HW213464   0.721   4.330   4.041
 3224SOL     OW13465   1.657   4.328   4.930
 3224SOL    HW113466   1.619   4.259   4.992
 3224SOL    HW213467   1.739   4.292   4.886
 3225SOL     OW13468   0.252   5.288   5.468
 3225SOL    HW113469   0.222   5.345   5.544
 3225SOL    HW213470   0.245   5.191   5.494
 3226SOL     OW13471   0.671   4.188   4.993
 3226SOL    HW113472   0.637   4.099   4.963
 3226SOL    HW213473   0.697   4.242   4.913
 3227SOL     OW13474   0.930   5.402   5.189
 3227SOL    HW113475   0.906   5.384   5.094
 3227SOL    HW213476   0.960   5.496   5.199
 3228SOL     OW13477   0.473   4.224   3.915
 3228SOL    HW113478   0.534   4.304   3.919
 3228SOL    HW213479   0.378   4.255   3.922
 3229SOL     OW13480   0.159   4.861   5.190
 3229SOL    HW113481   0.181   4.800   5.266
 3229SOL    HW213482   0.169   4.812   5.104
 3230SOL     OW13483   1.347   4.783   4.958
 3230SOL    HW113484   1.371   4.720   4.884
 3230SOL    HW213485   1.257   4.823   4.940
 3231SOL     OW13486   1.302   4.579   4.033
 3231SOL    HW113487   1.216   4.548   4.075
 3231SOL    HW213488   1.298   4.565   3.934
 3232SOL     OW13489   1.759   5.471   4.878
 3232SOL    HW113490   1.820   5.501   4.805
 3232SOL    HW213491   1.721   5.382   4.856
 3233SOL     OW13492   0.083   4.982   4.746
 3233SOL    HW113493   0.078   4.981   4.846
 3233SOL    HW213494   0.000   4.941   4.708
 3234SOL     OW13495   0.688   5.386   5.440
 3234SOL    HW113496   0.632   5.467   5.449
 3234SOL    HW213497   0.740   5.390   5.354
 3235SOL     OW13498   1.726   3.859   4.247
 3235SOL    HW113499   1.799   3.842   4.180
 3235SOL    HW213500   1.695   3.772   4.285
 3236SOL     OW13501   1.388   5.297   4.201
 3236SOL    HW113502   1.455   5.309   4.127
 3236SOL    HW213503   1.348   5.386   4.224
 3237SOL     OW13504   0.130   5.518   5.575
 3237SOL    HW113505   0.089   5.444   5.628
 3237SOL    HW213506   0.194   5.569   5.633
 3238SOL     OW13507   1.280   4.651   4.396
 3238SOL    HW113508   1.340   4.570   4.398
 3238SOL    HW213509   1.320   4.720   4.336
 3239SOL     OW13510   0.830   4.997   5.146
 3239SOL    HW113511   0.825   5.030   5.241
 3239SOL    HW213512   0.744   5.016   5.100
 3240SOL     OW13513   0.672   5.340   3.878
 3240SOL    HW113514   0.681   5.350   3.779
 3240SOL    HW213515   0.632   5.251   3.899
 3241SOL     OW13516   1.841   3.899   4.687
 3241SOL    HW113517   1.880   3.814   4.651
 3241SOL    HW213518   1.743   3.901   4.668
 3242SOL     OW13519   0.263   4.050   4.444
 3242SOL    HW113520   0.184   4.101   4.410
 3242SOL    HW213521   0.254   4.035   4.542
 3243SOL     OW13522   1.194   5.336   3.755
 3243SOL    HW113523   1.200   5.243   3.792
 3243SOL    HW213524   1.135   5.336   3.675
 3244SOL     OW13525   0.822   4.726   5.096
 3244SOL    HW113526   0.862   4.725   5.004
 3244SOL    HW213527   0.832   4.818   5.136
 3245SOL     OW13528   0.916   4.634   4.015
 3245SOL    HW113529   0.979   4.672   3.947
 3245SOL    HW213530   0.956   4.551   4.054
 3246SOL     OW13531   1.504   5.331   3.768
 3246SOL    HW113532   1.412   5.368   3.775
 3246SOL    HW213533   1.542   5.351   3.678
 3247SOL     OW13534   0.372   5.012   5.214
 3247SOL    HW113535   0.359   5.105   5.180
 3247SOL    HW213536   0.288   4.960   5.201
 3248SOL     OW13537   1.614   5.016   5.013
 3248SOL    HW113538   1.674   5.019   5.093
 3248SOL    HW213539   1.539   5.080   5.026
 3249SOL     OW13540   1.039   4.822   4.420
 3249SOL    HW113541   0.969   4.775   4.474
 3249SOL    HW213542   1.098   4.754   4.377
 3250SOL     OW13543   1.014   3.960   4.695
 3250SOL    HW113544   1.006   3.924   4.602
 3250SOL    HW213545   1.012   3.884   4.760
 3251SOL     OW13546   0.590   5.211   4.215
 3251SOL    HW113547   0.632   5.153   4.145
 3251SOL    HW213548   0.546   5.290   4.171
 3252SOL     OW13549   1.709   4.109   5.105
 3252SOL    HW113550   1.782   4.178   5.109
 3252SOL    HW213551   1.737   4.034   5.046
 3253SOL     OW13552   0.255   5.072   4.014
 3253SOL    HW113553   0.159   5.073   3.987
 3253SOL    HW213554   0.267   5.125   4.098
 3254SOL     OW13555   0.105   4.737   5.450
 3254SOL    HW113556   0.028   4.704   5.504
 3254SOL    HW213557   0.190   4.707   5.492
 3255SOL     OW13558   0.672   3.927   5.213
 3255SOL    HW113559   0.762   3.911   5.173
 3255SOL    HW213560   0.680   3.932   5.312
 3256SOL     OW13561   0.075   4.069   3.757
 3256SOL    HW113562  -0.017   4.041   3.728
 3256SOL    HW213563   0.106   4.146   3.701
 3257SOL     OW13564   1.440   4.580   5.122
 3257SOL    HW113565   1.383   4.632   5.059
 3257SOL    HW213566   1.536   4.592   5.098
 3258SOL     OW13567   0.072   3.890   4.042
 3258SOL    HW113568   0.055   3.973   3.988
 3258SOL    HW213569   0.162   3.853   4.020
 3259SOL     OW13570   1.183   5.059   3.843
 3259SOL    HW113571   1.084   5.048   3.845
 3259SOL    HW213572   1.217   5.074   3.936
 3260SOL     OW13573   1.493   5.491   4.683
 3260SOL    HW113574   1.526   5.555   4.614
 3260SOL    HW213575   1.559   5.485   4.758
 3261SOL     OW13576   1.450   4.944   5.357
 3261SOL    HW113577   1.441   4.934   5.456
 3261SOL    HW213578   1.546   4.937   5.331
 3262SOL     OW13579   0.390   5.465   5.284
 3262SOL    HW113580   0.299   5.506   5.282
 3262SOL    HW213581   0.383   5.371   5.316
 3263SOL     OW13582   1.225   4.049   4.173
 3263SOL    HW113583   1.290   3.975   4.162
 3263SOL    HW213584   1.245   4.099   4.257
 3264SOL     OW13585   0.594   4.469   4.376
 3264SOL    HW113586   0.644   4.554   4.357
 3264SOL    HW213587   0.506   4.471   4.328
 3265SOL     OW13588   1.777   4.066   5.366
 3265SOL    HW113589   1.760   4.097   5.272
 3265SOL    HW213590   1.693   4.029   5.404
 3266SOL     OW13591   0.859   5.098   3.740
 3266SOL    HW113592   0.813   5.113   3.828
 3266SOL    HW213593   0.903   5.183   3.710
 3267SOL     OW13594   0.661   5.514   4.677
 3267SOL    HW113595   0.615   5.602   4.664
 3267SOL    HW213596   0.760   5.526   4.670
 3268SOL     OW13597   0.859   4.680   4.585
 3268SOL    HW113598   0.913   4.611   4.633
 3268SOL    HW213599   0.827   4.749   4.651
 3269SOL     OW13600   1.083   4.708   3.811
 3269SOL    HW113601   1.060   4.761   3.729
 3269SOL    HW213602   1.164   4.652   3.792
 3270SOL     OW13603   1.861   5.293   4.575
 3270SOL    HW113604   1.790   5.281   4.505
 3270SOL    HW213605   1.862   5.214   4.635
 3271SOL     OW13606   0.221   5.038   5.568
 3271SOL    HW113607   0.156   4.965   5.547
 3271SOL    HW213608   0.225   5.052   5.666
 3272SOL     OW13609   0.079   4.964   4.377
 3272SOL    HW113610   0.078   4.917   4.465
 3272SOL    HW213611   0.161   4.936   4.326
 3273SOL     OW13612   0.672   5.115   5.348
 3273SOL    HW113613   0.594   5.065   5.386
 3273SOL    HW213614   0.669   5.210   5.379
 3274SOL     OW13615   1.824   3.916   4.951
 3274SOL    HW113616   1.820   3.826   4.995
 3274SOL    HW213617   1.827   3.905   4.852
 3275SOL     OW13618   0.428   4.148   4.244
 3275SOL    HW113619   0.458   4.076   4.182
 3275SOL    HW213620   0.389   4.108   4.327
 3276SOL     OW13621   1.705   5.211   4.828
 3276SOL    HW113622   1.612   5.186   4.801
 3276SOL    HW213623   1.731   5.161   4.910
 3277SOL     OW13624   0.317   4.271   5.004
 3277SOL    HW113625   0.355   4.212   5.076
 3277SOL    HW213626   0.357   4.245   4.916
 3278SOL     OW13627   0.812   5.310   4.411
 3278SOL    HW113628   0.844   5.320   4.317
 3278SOL    HW213629   0.733   5.248   4.413
 3279SOL     OW13630   1.424   3.938   4.836
 3279SOL    HW113631   1.476   3.873   4.891
 3279SOL    HW213632   1.375   4.001   4.897
 3280SOL     OW13633   1.001   3.758   4.878
 3280SOL    HW113634   0.938   3.686   4.847
 3280SOL    HW213635   1.094   3.722   4.878
 3281SOL     OW13636   0.770   5.054   4.025
 3281SOL    HW113637   0.724   4.967   4.042
 3281SOL    HW213638   0.861   5.051   4.066
 3282SOL     OW13639   0.618   5.291   5.008
 3282SOL    HW113640   0.613   5.373   5.065
 3282SOL    HW213641   0.707   5.288   4.963
 3283SOL     OW13642   1.352   3.776   3.892
 3283SOL    HW113643   1.387   3.735   3.808
 3283SOL    HW213644   1.262   3.738   3.912
 3284SOL     OW13645   1.300   4.177   4.415
 3284SOL    HW113646   1.241   4.257   4.419
 3284SOL    HW213647   1.315   4.142   4.508
 3285SOL     OW13648   1.593   3.945   4.606
 3285SOL    HW113649   1.509   3.944   4.660
 3285SOL    HW213650   1.595   4.028   4.550
 3286SOL     OW13651   0.039   4.801   4.024
 3286SOL    HW113652   0.138   4.790   4.015
 3286SOL    HW213653  -0.001   4.715   4.056
 3287SOL     OW13654   0.875   5.370   4.061
 3287SOL    HW113655   0.798   5.335   4.007
 3287SOL    HW213656   0.843   5.441   4.123
 3288SOL     OW13657   0.230   4.352   5.699
 3288SOL    HW113658   0.137   4.350   5.736
 3288SOL    HW213659   0.231   4.313   5.607
 3289SOL     OW13660   0.225   3.999   6.582
 3289SOL    HW113661   0.260   3.982   6.674
 3289SOL    HW213662   0.137   3.954   6.570
 3290SOL     OW13663   1.555   5.235   6.289
 3290SOL    HW113664   1.498   5.219   6.370
 3290SOL    HW213665   1.496   5.245   6.209
 3291SOL     OW13666   1.135   4.427   6.303
 3291SOL    HW113667   1.192   4.505   6.278
 3291SOL    HW213668   1.075   4.453   6.379
 3292SOL     OW13669   0.850   4.522   7.409
 3292SOL    HW113670   0.846   4.598   7.474
 3292SOL    HW213671   0.872   4.558   7.318
 3293SOL     OW13672   0.685   4.736   6.251
 3293SOL    HW113673   0.754   4.720   6.321
 3293SOL    HW213674   0.612   4.793   6.289
 3294SOL     OW13675   0.686   4.885   7.389
 3294SOL    HW113676   0.746   4.964   7.403
 3294SOL    HW213677   0.600   4.916   7.348
 3295SOL     OW13678   0.335   5.159   6.647
 3295SOL    HW113679   0.257   5.128   6.594
 3295SOL    HW213680   0.393   5.217   6.590
 3296SOL     OW13681   1.460   5.229   6.925
 3296SOL    HW113682   1.484   5.323   6.951
 3296SOL    HW213683   1.444   5.175   7.007
 3297SOL     OW13684   0.438   4.116   7.085
 3297SOL    HW113685   0.520   4.060   7.094
 3297SOL    HW213686   0.357   4.058   7.089
 3298SOL     OW13687   0.231   5.437   6.069
 3298SOL    HW113688   0.265   5.514   6.123
 3298SOL    HW213689   0.275   5.437   5.979
 3299SOL     OW13690   1.127   5.065   7.276
 3299SOL    HW113691   1.174   5.065   7.364
 3299SOL    HW213692   1.079   4.978   7.265
 3300SOL     OW13693   0.230   5.158   6.124
 3300SOL    HW113694   0.204   5.254   6.124
 3300SOL    HW213695   0.159   5.104   6.169
 3301SOL     OW13696   0.240   4.815   6.472
 3301SOL    HW113697   0.254   4.731   6.524
 3301SOL    HW213698   0.185   4.879   6.527
 3302SOL     OW13699   0.620   5.510   7.025
 3302SOL    HW113700   0.528   5.493   7.060
 3302SOL    HW213701   0.648   5.602   7.051
 3303SOL     OW13702   0.606   4.688   5.709
 3303SOL    HW113703   0.613   4.772   5.655
 3303SOL    HW213704   0.652   4.701   5.797
 3304SOL     OW13705   1.594   3.838   7.066
 3304SOL    HW113706   1.576   3.905   6.994
 3304SOL    HW213707   1.591   3.884   7.155
 3305SOL     OW13708   1.842   5.491   5.945
 3305SOL    HW113709   1.896   5.462   6.025
 3305SOL    HW213710   1.872   5.581   5.916
 3306SOL     OW13711   0.027   5.320   5.703
 3306SOL    HW113712   0.008   5.224   5.724
 3306SOL    HW213713  -0.006   5.378   5.778
 3307SOL     OW13714   1.689   4.646   6.198
 3307SOL    HW113715   1.784   4.617   6.206
 3307SOL    HW213716   1.681   4.711   6.123
 3308SOL     OW13717   1.641   4.832   6.018
 3308SOL    HW113718   1.727   4.834   5.966
 3308SOL    HW213719   1.655   4.879   6.106
 3309SOL     OW13720   0.113   4.461   7.183
 3309SOL    HW113721   0.201   4.448   7.228
 3309SOL    HW213722   0.100   4.558   7.161
 3310SOL     OW13723   0.613   5.089   6.312
 3310SOL    HW113724   0.564   5.002   6.321
 3310SOL    HW213725   0.590   5.132   6.225
 3311SOL     OW13726   1.293   4.952   7.009
 3311SOL    HW113727   1.330   4.879   6.951
 3311SOL    HW213728   1.345   4.957   7.094
 3312SOL     OW13729   0.809   3.728   6.088
 3312SOL    HW113730   0.849   3.819   6.079
 3312SOL    HW213731   0.709   3.736   6.094
 3313SOL     OW13732   1.525   4.723   5.776
 3313SOL    HW113733   1.462   4.647   5.789
 3313SOL    HW213734   1.573   4.741   5.862
 3314SOL     OW13735   0.317   3.975   7.387
 3314SOL    HW113736   0.388   4.046   7.393
 3314SOL    HW213737   0.229   4.014   7.415
 3315SOL     OW13738   1.466   5.141   6.539
 3315SOL    HW113739   1.407   5.147   6.619
 3315SOL    HW213740   1.451   5.053   6.493
 3316SOL     OW13741   1.667   5.438   6.158
 3316SOL    HW113742   1.626   5.415   6.070
 3316SOL    HW213743   1.649   5.364   6.223
 3317SOL     OW13744   1.281   4.069   6.530
 3317SOL    HW113745   1.195   4.019   6.517
 3317SOL    HW213746   1.343   4.015   6.586
 3318SOL     OW13747   1.576   5.386   5.893
 3318SOL    HW113748   1.665   5.432   5.896
 3318SOL    HW213749   1.555   5.362   5.798
 3319SOL     OW13750   0.807   4.329   7.051
 3319SOL    HW113751   0.760   4.326   7.140
 3319SOL    HW213752   0.756   4.274   6.985
 3320SOL     OW13753   1.394   4.193   7.260
 3320SOL    HW113754   1.374   4.236   7.348
 3320SOL    HW213755   1.472   4.131   7.269
 3321SOL     OW13756   0.973   4.614   7.158
 3321SOL    HW113757   1.019   4.530   7.129
 3321SOL    HW213758   0.917   4.648   7.083
 3322SOL     OW13759   0.991   4.134   6.828
 3322SOL    HW113760   0.914   4.168   6.882
 3322SOL    HW213761   0.957   4.083   6.749
 3323SOL     OW13762   1.041   4.425   6.015
 3323SOL    HW113763   1.067   4.421   6.111
 3323SOL    HW213764   0.956   4.374   6.001
 3324SOL     OW13765   0.076   4.535   6.375
 3324SOL    HW113766   0.175   4.523   6.384
 3324SOL    HW213767   0.052   4.630   6.396
 3325SOL     OW13768   0.130   5.545   7.157
 3325SOL    HW113769   0.120   5.530   7.256
 3325SOL    HW213770   0.044   5.581   7.121
 3326SOL     OW13771   0.865   4.072   5.781
 3326SOL    HW113772   0.924   4.135   5.732
 3326SOL    HW213773   0.884   3.978   5.752
 3327SOL     OW13774   1.719   4.309   7.417
 3327SOL    HW113775   1.693   4.398   7.381
 3327SOL    HW213776   1.717   4.241   7.344
 3328SOL     OW13777   1.362   4.868   6.131
 3328SOL    HW113778   1.445   4.839   6.083
 3328SOL    HW213779   1.313   4.935   6.075
 3329SOL     OW13780   0.550   3.920   6.471
 3329SOL    HW113781   0.545   3.915   6.571
 3329SOL    HW213782   0.552   4.016   6.442
 3330SOL     OW13783   1.008   5.180   6.063
 3330SOL    HW113784   0.962   5.252   6.011
 3330SOL    HW213785   1.004   5.200   6.161
 3331SOL     OW13786   0.351   5.525   6.439
 3331SOL    HW113787   0.401   5.439   6.445
 3331SOL    HW213788   0.416   5.602   6.436
 3332SOL     OW13789   1.795   4.790   6.459
 3332SOL    HW113790   1.733   4.775   6.383
 3332SOL    HW213791   1.743   4.801   6.544
 3333SOL     OW13792   1.227   5.274   7.092
 3333SOL    HW113793   1.233   5.197   7.156
 3333SOL    HW213794   1.175   5.248   7.012
 3334SOL     OW13795   1.458   4.459   6.314
 3334SOL    HW113796   1.453   4.394   6.389
 3334SOL    HW213797   1.538   4.518   6.327
 3335SOL     OW13798   0.461   4.990   7.313
 3335SOL    HW113799   0.411   4.991   7.227
 3335SOL    HW213800   0.398   4.972   7.389
 3336SOL     OW13801   1.111   5.500   5.823
 3336SOL    HW113802   1.051   5.438   5.873
 3336SOL    HW213803   1.142   5.456   5.738
 3337SOL     OW13804   0.202   4.009   7.084
 3337SOL    HW113805   0.122   4.069   7.071
 3337SOL    HW213806   0.192   3.960   7.170
 3338SOL     OW13807   1.632   5.101   5.667
 3338SOL    HW113808   1.600   5.195   5.657
 3338SOL    HW213809   1.556   5.038   5.655
 3339SOL     OW13810   0.464   5.467   5.909
 3339SOL    HW113811   0.497   5.506   5.995
 3339SOL    HW213812   0.540   5.460   5.844
 3340SOL     OW13813   1.400   3.831   6.012
 3340SOL    HW113814   1.376   3.794   5.922
 3340SOL    HW213815   1.499   3.847   6.016
 3341SOL     OW13816   0.249   5.509   6.827
 3341SOL    HW113817   0.306   5.444   6.877
 3341SOL    HW213818   0.233   5.476   6.734
 3342SOL     OW13819   0.940   5.422   6.490
 3342SOL    HW113820   1.020   5.365   6.511
 3342SOL    HW213821   0.891   5.382   6.413
 3343SOL     OW13822   1.547   3.946   7.315
 3343SOL    HW113823   1.542   3.983   7.407
 3343SOL    HW213824   1.475   3.877   7.303
 3344SOL     OW13825   0.614   3.846   5.703
 3344SOL    HW113826   0.712   3.824   5.710
 3344SOL    HW213827   0.583   3.829   5.610
 3345SOL     OW13828   0.781   3.988   7.335
 3345SOL    HW113829   0.848   3.927   7.378
 3345SOL    HW213830   0.708   4.007   7.400
 3346SOL     OW13831   0.888   5.238   6.781
 3346SOL    HW113832   0.865   5.213   6.687
 3346SOL    HW213833   0.949   5.169   6.820
 3347SOL     OW13834   1.351   4.314   7.019
 3347SOL    HW113835   1.379   4.271   7.104
 3347SOL    HW213836   1.376   4.410   7.020
 3348SOL     OW13837   0.803   5.126   6.510
 3348SOL    HW113838   0.893   5.140   6.468
 3348SOL    HW213839   0.732   5.128   6.439
 3349SOL     OW13840   0.922   4.227   6.485
 3349SOL    HW113841   0.897   4.218   6.389
 3349SOL    HW213842   0.970   4.145   6.516
 3350SOL     OW13843   0.539   3.788   6.098
 3350SOL    HW113844   0.458   3.789   6.156
 3350SOL    HW213845   0.542   3.871   6.043
 3351SOL     OW13846   1.434   4.912   5.627
 3351SOL    HW113847   1.466   4.836   5.684
 3351SOL    HW213848   1.342   4.939   5.657
 3352SOL     OW13849   0.297   3.759   5.757
 3352SOL    HW113850   0.346   3.843   5.736
 3352SOL    HW213851   0.359   3.694   5.802
 3353SOL     OW13852   0.935   3.960   6.066
 3353SOL    HW113853   0.887   4.001   5.988
 3353SOL    HW213854   1.034   3.958   6.047
 3354SOL     OW13855   1.076   4.407   7.050
 3354SOL    HW113856   0.996   4.346   7.053
 3354SOL    HW213857   1.157   4.354   7.026
 3355SOL     OW13858   1.227   5.294   6.379
 3355SOL    HW113859   1.248   5.368   6.314
 3355SOL    HW213860   1.295   5.294   6.452
 3356SOL     OW13861   0.459   4.876   6.327
 3356SOL    HW113862   0.388   4.849   6.392
 3356SOL    HW213863   0.433   4.848   6.234
 3357SOL     OW13864   1.271   5.521   6.177
 3357SOL    HW113865   1.315   5.585   6.113
 3357SOL    HW213866   1.221   5.573   6.247
 3358SOL     OW13867   0.078   4.280   6.972
 3358SOL    HW113868   0.170   4.279   6.931
 3358SOL    HW213869   0.072   4.354   7.039
 3359SOL     OW13870   0.561   3.946   6.733
 3359SOL    HW113871   0.599   3.862   6.770
 3359SOL    HW213872   0.473   3.965   6.777
 3360SOL     OW13873   0.866   4.178   6.228
 3360SOL    HW113874   0.834   4.250   6.166
 3360SOL    HW213875   0.890   4.097   6.175
 3361SOL     OW13876   1.017   3.763   6.339
 3361SOL    HW113877   0.945   3.768   6.270
 3361SOL    HW213878   0.993   3.694   6.408
 3362SOL     OW13879   1.429   4.897   6.453
 3362SOL    HW113880   1.374   4.813   6.446
 3362SOL    HW213881   1.455   4.926   6.361
 3363SOL     OW13882   1.466   4.314   6.578
 3363SOL    HW113883   1.436   4.219   6.585
 3363SOL    HW213884   1.539   4.330   6.644
 3364SOL     OW13885   0.488   5.109   5.760
 3364SOL    HW113886   0.401   5.094   5.807
 3364SOL    HW213887   0.471   5.135   5.665
 3365SOL     OW13888   1.664   5.004   6.243
 3365SOL    HW113889   1.763   5.012   6.257
 3365SOL    HW213890   1.619   5.088   6.274
 3366SOL     OW13891   0.527   3.980   5.914
 3366SOL    HW113892   0.554   3.921   5.839
 3366SOL    HW213893   0.527   4.075   5.883
 3367SOL     OW13894   1.754   4.947   7.174
 3367SOL    HW113895   1.845   4.908   7.161
 3367SOL    HW213896   1.762   5.043   7.198
 3368SOL     OW13897   1.064   5.071   6.926
 3368SOL    HW113898   0.984   5.048   6.981
 3368SOL    HW213899   1.147   5.045   6.975
 3369SOL     OW13900   1.592   5.353   7.211
 3369SOL    HW113901   1.619   5.387   7.121
 3369SOL    HW213902   1.671   5.315   7.257
 3370SOL     OW13903   1.111   4.919   6.686
 3370SOL    HW113904   1.071   4.963   6.767
 3370SOL    HW213905   1.070   4.956   6.603
 3371SOL     OW13906   1.638   4.823   6.665
 3371SOL    HW113907   1.643   4.904   6.724
 3371SOL    HW213908   1.552   4.825   6.614
 3372SOL     OW13909   0.915   3.813   6.988
 3372SOL    HW113910   0.940   3.793   6.893
 3372SOL    HW213911   0.987   3.869   7.030
 3373SOL     OW13912   0.980   4.840   7.305
 3373SOL    HW113913   0.881   4.846   7.315
 3373SOL    HW213914   1.003   4.760   7.249
 3374SOL     OW13915   1.274   4.110   6.848
 3374SOL    HW113916   1.295   4.184   6.912
 3374SOL    HW213917   1.185   4.127   6.805
 3375SOL     OW13918   0.064   5.288   6.917
 3375SOL    HW113919   0.018   5.370   6.883
 3375SOL    HW213920   0.162   5.307   6.926
 3376SOL     OW13921   0.566   4.261   6.451
 3376SOL    HW113922   0.578   4.327   6.377
 3376SOL    HW213923   0.612   4.295   6.534
 3377SOL     OW13924   1.252   5.072   5.974
 3377SOL    HW113925   1.302   5.149   6.014
 3377SOL    HW213926   1.157   5.074   6.006
 3378SOL     OW13927   1.272   5.169   6.728
 3378SOL    HW113928   1.319   5.182   6.815
 3378SOL    HW213929   1.206   5.095   6.737
 3379SOL     OW13930   0.354   5.234   6.915
 3379SOL    HW113931   0.333   5.190   6.828
 3379SOL    HW213932   0.451   5.260   6.918
 3380SOL     OW13933   0.402   4.475   7.184
 3380SOL    HW113934   0.470   4.530   7.137
 3380SOL    HW213935   0.442   4.387   7.211
 3381SOL     OW13936   1.587   4.503   7.256
 3381SOL    HW113937   1.495   4.541   7.251
 3381SOL    HW213938   1.647   4.550   7.191
 3382SOL     OW13939   1.013   3.829   7.356
 3382SOL    HW113940   1.019   3.914   7.304
 3382SOL    HW213941   1.045   3.753   7.299
 3383SOL     OW13942   0.504   3.774   7.326
 3383SOL    HW113943   0.462   3.717   7.256
 3383SOL    HW213944   0.438   3.843   7.358
 3384SOL     OW13945   0.573   4.594   6.615
 3384SOL    HW113946   0.617   4.683   6.606
 3384SOL    HW213947   0.510   4.594   6.692
 3385SOL     OW13948   1.360   4.586   6.631
 3385SOL    HW113949   1.285   4.586   6.565
 3385SOL    HW213950   1.397   4.494   6.640
 3386SOL     OW13951   1.209   4.249   5.861
 3386SOL    HW113952   1.222   4.165   5.915
 3386SOL    HW213953   1.180   4.323   5.921
 3387SOL     OW13954   0.307   3.937   6.817
 3387SOL    HW113955   0.284   3.974   6.907
 3387SOL    HW213956   0.277   3.842   6.811
 3388SOL     OW13957   0.037   5.034   6.868
 3388SOL    HW113958   0.090   4.985   6.936
 3388SOL    HW213959   0.059   5.132   6.873
 3389SOL     OW13960   0.732   4.358   6.650
 3389SOL    HW113961   0.791   4.332   6.574
 3389SOL    HW213962   0.704   4.454   6.639
 3390SOL     OW13963   0.307   3.787   6.204
 3390SOL    HW113964   0.296   3.881   6.237
 3390SOL    HW213965   0.302   3.724   6.281
 3391SOL     OW13966   1.622   4.091   5.960
 3391SOL    HW113967   1.624   4.015   6.024
 3391SOL    HW213968   1.574   4.168   6.000
 3392SOL     OW13969   1.023   4.490   6.552
 3392SOL    HW113970   1.038   4.511   6.648
 3392SOL    HW213971   0.993   4.395   6.543
 3393SOL     OW13972   0.980   5.297   7.286
 3393SOL    HW113973   0.960   5.341   7.198
 3393SOL    HW213974   1.019   5.206   7.270
 3394SOL     OW13975   1.859   5.242   7.191
 3394SOL    HW113976   1.873   5.269   7.096
 3394SOL    HW213977   1.942   5.264   7.244
 3395SOL     OW13978   0.350   4.622   7.390
 3395SOL    HW113979   0.426   4.666   7.438
 3395SOL    HW213980   0.385   4.575   7.308
 3396SOL     OW13981   1.540   3.998   5.711
 3396SOL    HW113982   1.479   3.923   5.734
 3396SOL    HW213983   1.562   4.050   5.794
 3397SOL     OW13984   1.303   4.562   5.628
 3397SOL    HW113985   1.337   4.469   5.643
 3397SOL    HW213986   1.321   4.589   5.533
 3398SOL     OW13987   1.068   5.057   6.435
 3398SOL    HW113988   1.075   4.973   6.380
 3398SOL    HW213989   1.130   5.126   6.399
 3399SOL     OW13990   0.319   4.534   6.535
 3399SOL    HW113991   0.412   4.570   6.540
 3399SOL    HW213992   0.313   4.449   6.587
 3400SOL     OW13993   0.339   4.233   6.592
 3400SOL    HW113994   0.287   4.150   6.575
 3400SOL    HW213995   0.416   4.238   6.528
 3401SOL     OW13996   1.138   4.104   7.264
 3401SOL    HW113997   1.093   4.167   7.328
 3401SOL    HW213998   1.231   4.135   7.247
 3402SOL     OW13999   1.160   3.931   7.063
 3402SOL    HW114000   1.160   3.995   7.140
 3402SOL    HW214001   1.188   3.979   6.980
 3403SOL     OW14002   0.008   5.050   5.786
 3403SOL    HW114003  -0.085   5.071   5.755
 3403SOL    HW214004   0.018   4.951   5.799
 3404SOL     OW14005   0.088   5.525   6.513
 3404SOL    HW114006   0.046   5.439   6.486
 3404SOL    HW214007   0.182   5.528   6.479
 3405SOL     OW14008   0.504   5.292   6.496
 3405SOL    HW114009   0.570   5.366   6.505
 3405SOL    HW214010   0.548   5.213   6.454
 3406SOL     OW14011   1.002   4.520   6.824
 3406SOL    HW114012   1.043   4.488   6.910
 3406SOL    HW214013   0.906   4.493   6.821
 3407SOL     OW14014   0.040   4.268   6.700
 3407SOL    HW114015   0.125   4.235   6.659
 3407SOL    HW214016   0.053   4.283   6.798
 3408SOL     OW14017   0.189   4.244   7.308
 3408SOL    HW114018   0.248   4.204   7.238
 3408SOL    HW214019   0.131   4.315   7.267
 3409SOL     OW14020   1.369   4.674   7.246
 3409SOL    HW114021   1.408   4.763   7.266
 3409SOL    HW214022   1.379   4.654   7.149
 3410SOL     OW14023   0.815   4.296   5.911
 3410SOL    HW114024   0.822   4.207   5.865
 3410SOL    HW214025   0.721   4.330   5.903
 3411SOL     OW14026   1.657   4.328   6.792
 3411SOL    HW114027   1.619   4.259   6.854
 3411SOL    HW214028   1.739   4.292   6.748
 3412SOL     OW14029   0.252   5.288   7.330
 3412SOL    HW114030   0.222   5.345   7.406
 3412SOL    HW214031   0.245   5.191   7.356
 3413SOL     OW14032   0.671   4.188   6.855
 3413SOL    HW114033   0.637   4.099   6.825
 3413SOL    HW214034   0.697   4.242   6.775
 3414SOL     OW14035   0.930   5.402   7.051
 3414SOL    HW114036   0.906   5.384   6.956
 3414SOL    HW214037   0.960   5.496   7.061
 3415SOL     OW14038   0.473   4.224   5.777
 3415SOL    HW114039   0.534   4.304   5.781
 3415SOL    HW214040   0.378   4.255   5.784
 3416SOL     OW14041   0.159   4.861   7.052
 3416SOL    HW114042   0.181   4.800   7.128
 3416SOL    HW214043   0.169   4.812   6.966
 3417SOL     OW14044   1.347   4.783   6.820
 3417SOL    HW114045   1.371   4.720   6.746
 3417SOL    HW214046   1.257   4.823   6.802
 3418SOL     OW14047   1.302   4.579   5.895
 3418SOL    HW114048   1.216   4.548   5.937
 3418SOL    HW214049   1.298   4.565   5.796
 3419SOL     OW14050   1.759   5.471   6.740
 3419SOL    HW114051   1.820   5.501   6.667
 3419SOL    HW214052   1.721   5.382   6.718
 3420SOL     OW14053   1.252   5.455   6.714
 3420SOL    HW114054   1.336   5.460   6.660
 3420SOL    HW214055   1.229   5.359   6.732
 3421SOL     OW14056   0.083   4.982   6.608
 3421SOL    HW114057   0.078   4.981   6.708
 3421SOL    HW214058   0.000   4.941   6.570
 3422SOL     OW14059   0.688   5.386   7.302
 3422SOL    HW114060   0.632   5.467   7.311
 3422SOL    HW214061   0.740   5.390   7.216
 3423SOL     OW14062   1.726   3.859   6.109
 3423SOL    HW114063   1.799   3.842   6.042
 3423SOL    HW214064   1.695   3.772   6.147
 3424SOL     OW14065   1.388   5.297   6.063
 3424SOL    HW114066   1.455   5.309   5.989
 3424SOL    HW214067   1.348   5.386   6.086
 3425SOL     OW14068   0.130   5.518   7.437
 3425SOL    HW114069   0.089   5.444   7.490
 3425SOL    HW214070   0.194   5.569   7.495
 3426SOL     OW14071   1.280   4.651   6.258
 3426SOL    HW114072   1.340   4.570   6.260
 3426SOL    HW214073   1.320   4.720   6.198
 3427SOL     OW14074   0.672   5.340   5.740
 3427SOL    HW114075   0.681   5.350   5.641
 3427SOL    HW214076   0.632   5.251   5.761
 3428SOL     OW14077   1.650   5.444   6.980
 3428SOL    HW114078   1.703   5.454   6.896
 3428SOL    HW214079   1.623   5.534   7.014
 3429SOL     OW14080   1.841   3.899   6.549
 3429SOL    HW114081   1.880   3.814   6.513
 3429SOL    HW214082   1.743   3.901   6.530
 3430SOL     OW14083   0.263   4.050   6.306
 3430SOL    HW114084   0.184   4.101   6.272
 3430SOL    HW214085   0.254   4.035   6.404
 3431SOL     OW14086   1.194   5.336   5.617
 3431SOL    HW114087   1.200   5.243   5.654
 3431SOL    HW214088   1.135   5.336   5.537
 3432SOL     OW14089   0.916   4.634   5.877
 3432SOL    HW114090   0.979   4.672   5.809
 3432SOL    HW214091   0.956   4.551   5.916
 3433SOL     OW14092   1.504   5.331   5.630
 3433SOL    HW114093   1.412   5.368   5.637
 3433SOL    HW214094   1.542   5.351   5.540
 3434SOL     OW14095   0.372   5.012   7.076
 3434SOL    HW114096   0.359   5.105   7.042
 3434SOL    HW214097   0.288   4.960   7.063
 3435SOL     OW14098   1.614   5.016   6.875
 3435SOL    HW114099   1.674   5.019   6.955
 3435SOL    HW214100   1.539   5.080   6.888
 3436SOL     OW14101   1.039   4.822   6.282
 3436SOL    HW114102   0.969   4.775   6.336
 3436SOL    HW214103   1.098   4.754   6.239
 3437SOL     OW14104   1.014   3.960   6.557
 3437SOL    HW114105   1.006   3.924   6.464
 3437SOL    HW214106   1.012   3.884   6.622
 3438SOL     OW14107   0.590   5.211   6.077
 3438SOL    HW114108   0.632   5.153   6.007
 3438SOL    HW214109   0.546   5.290   6.033
 3439SOL     OW14110   1.709   4.109   6.967
 3439SOL    HW114111   1.782   4.178   6.971
 3439SOL    HW214112   1.737   4.034   6.908
 3440SOL     OW14113   0.255   5.072   5.876
 3440SOL    HW114114   0.159   5.073   5.849
 3440SOL    HW214115   0.267   5.125   5.960
 3441SOL     OW14116   0.105   4.737   7.312
 3441SOL    HW114117   0.028   4.704   7.366
 3441SOL    HW214118   0.190   4.707   7.354
 3442SOL     OW14119   0.672   3.927   7.075
 3442SOL    HW114120   0.762   3.911   7.035
 3442SOL    HW214121   0.680   3.932   7.174
 3443SOL     OW14122   0.075   4.069   5.619
 3443SOL    HW114123  -0.017   4.041   5.590
 3443SOL    HW214124   0.106   4.146   5.563
 3444SOL     OW14125   1.440   4.580   6.984
 3444SOL    HW114126   1.383   4.632   6.921
 3444SOL    HW214127   1.536   4.592   6.960
 3445SOL     OW14128   0.072   3.890   5.904
 3445SOL    HW114129   0.055   3.973   5.850
 3445SOL    HW214130   0.162   3.853   5.882
 3446SOL     OW14131   1.183   5.059   5.705
 3446SOL    HW114132   1.084   5.048   5.707
 3446SOL    HW214133   1.217   5.074   5.798
 3447SOL     OW14134   1.493   5.491   6.545
 3447SOL    HW114135   1.526   5.555   6.476
 3447SOL    HW214136   1.559   5.485   6.620
 3448SOL     OW14137   0.716   4.289   7.294
 3448SOL    HW114138   0.735   4.354   7.368
 3448SOL    HW214139   0.776   4.209   7.303
 3449SOL     OW14140   1.450   4.944   7.219
 3449SOL    HW114141   1.441   4.934   7.318
 3449SOL    HW214142   1.546   4.937   7.193
 3450SOL     OW14143   0.390   5.465   7.146
 3450SOL    HW114144   0.299   5.506   7.144
 3450SOL    HW214145   0.383   5.371   7.178
 3451SOL     OW14146   1.674   4.607   6.840
 3451SOL    HW114147   1.647   4.518   6.803
 3451SOL    HW214148   1.675   4.675   6.767
 3452SOL     OW14149   1.225   4.049   6.035
 3452SOL    HW114150   1.290   3.975   6.024
 3452SOL    HW214151   1.245   4.099   6.119
 3453SOL     OW14152   1.777   4.066   7.228
 3453SOL    HW114153   1.760   4.097   7.134
 3453SOL    HW214154   1.693   4.029   7.266
 3454SOL     OW14155   1.730   4.658   7.103
 3454SOL    HW114156   1.768   4.749   7.118
 3454SOL    HW214157   1.722   4.641   7.004
 3455SOL     OW14158   0.859   5.098   5.602
 3455SOL    HW114159   0.813   5.113   5.690
 3455SOL    HW214160   0.903   5.183   5.572
 3456SOL     OW14161   0.661   5.514   6.539
 3456SOL    HW114162   0.615   5.602   6.526
 3456SOL    HW214163   0.760   5.526   6.532
 3457SOL     OW14164   0.859   4.680   6.447
 3457SOL    HW114165   0.913   4.611   6.495
 3457SOL    HW214166   0.827   4.749   6.513
 3458SOL     OW14167   1.861   5.293   6.437
 3458SOL    HW114168   1.790   5.281   6.367
 3458SOL    HW214169   1.862   5.214   6.497
 3459SOL     OW14170   0.221   5.038   7.430
 3459SOL    HW114171   0.156   4.965   7.409
 3459SOL    HW214172   0.225   5.052   7.528
 3460SOL     OW14173   0.079   4.964   6.239
 3460SOL    HW114174   0.078   4.917   6.327
 3460SOL    HW214175   0.161   4.936   6.188
 3461SOL     OW14176   0.672   5.115   7.210
 3461SOL    HW114177   0.594   5.065   7.248
 3461SOL    HW214178   0.669   5.210   7.241
 3462SOL     OW14179   1.824   3.916   6.813
 3462SOL    HW114180   1.820   3.826   6.857
 3462SOL    HW214181   1.827   3.905   6.714
 3463SOL     OW14182   0.428   4.148   6.106
 3463SOL    HW114183   0.458   4.076   6.044
 3463SOL    HW214184   0.389   4.108   6.189
 3464SOL     OW14185   1.705   5.211   6.690
 3464SOL    HW114186   1.612   5.186   6.663
 3464SOL    HW214187   1.731   5.161   6.772
 3465SOL     OW14188   0.317   4.271   6.866
 3465SOL    HW114189   0.355   4.212   6.938
 3465SOL    HW214190   0.357   4.245   6.778
 3466SOL     OW14191   0.812   5.310   6.273
 3466SOL    HW114192   0.844   5.320   6.179
 3466SOL    HW214193   0.733   5.248   6.275
 3467SOL     OW14194   1.424   3.938   6.698
 3467SOL    HW114195   1.476   3.873   6.753
 3467SOL    HW214196   1.375   4.001   6.759
 3468SOL     OW14197   1.001   3.758   6.740
 3468SOL    HW114198   0.938   3.686   6.709
 3468SOL    HW214199   1.094   3.722   6.740
 3469SOL     OW14200   0.770   5.054   5.887
 3469SOL    HW114201   0.724   4.967   5.904
 3469SOL    HW214202   0.861   5.051   5.928
 3470SOL     OW14203   0.618   5.291   6.870
 3470SOL    HW114204   0.613   5.373   6.927
 3470SOL    HW214205   0.707   5.288   6.825
 3471SOL     OW14206   1.300   4.177   6.277
 3471SOL    HW114207   1.241   4.257   6.281
 3471SOL    HW214208   1.315   4.142   6.370
 3472SOL     OW14209   1.593   3.945   6.468
 3472SOL    HW114210   1.509   3.944   6.522
 3472SOL    HW214211   1.595   4.028   6.412
 3473SOL     OW14212   0.039   4.801   5.886
 3473SOL    HW114213   0.138   4.790   5.877
 3473SOL    HW214214  -0.001   4.715   5.918
 3474SOL     OW14215   0.875   5.370   5.923
 3474SOL    HW114216   0.798   5.335   5.869
 3474SOL    HW214217   0.843   5.441   5.985
 3475SOL     OW14218   0.230   4.352   7.561
 3475SOL    HW114219   0.137   4.350   7.598
 3475SOL    HW214220   0.231   4.313   7.469
 3476SOL     OW14221   0.225   3.999   8.444
 3476SOL    HW114222   0.260   3.982   8.536
 3476SOL    HW214223   0.137   3.954   8.432
 3477SOL     OW14224   0.019   4.092   8.095
 3477SOL    HW114225  -0.063   4.135   8.134
 3477SOL    HW214226  -0.009   4.019   8.032
 3478SOL     OW14227   0.569   4.999   8.613
 3478SOL    HW114228   0.476   4.992   8.576
 3478SOL    HW214229   0.580   5.088   8.657
 3479SOL     OW14230   1.555   5.235   8.151
 3479SOL    HW114231   1.498   5.219   8.232
 3479SOL    HW214232   1.496   5.245   8.071
 3480SOL     OW14233   1.135   4.427   8.165
 3480SOL    HW114234   1.192   4.505   8.140
 3480SOL    HW214235   1.075   4.453   8.241
 3481SOL     OW14236   1.755   4.331   7.679
 3481SOL    HW114237   1.743   4.318   7.580
 3481SOL    HW214238   1.725   4.250   7.728
 3482SOL     OW14239   0.768   4.868   8.471
 3482SOL    HW114240   0.690   4.885   8.531
 3482SOL    HW214241   0.802   4.955   8.435
 3483SOL     OW14242   0.850   4.522   9.271
 3483SOL    HW114243   0.846   4.598   9.336
 3483SOL    HW214244   0.872   4.558   9.180
 3484SOL     OW14245   0.685   4.736   8.113
 3484SOL    HW114246   0.754   4.720   8.183
 3484SOL    HW214247   0.612   4.793   8.151
 3485SOL     OW14248   0.686   4.885   9.251
 3485SOL    HW114249   0.746   4.964   9.265
 3485SOL    HW214250   0.600   4.916   9.210
 3486SOL     OW14251   0.335   5.159   8.509
 3486SOL    HW114252   0.257   5.128   8.456
 3486SOL    HW214253   0.393   5.217   8.452
 3487SOL     OW14254   1.460   5.229   8.787
 3487SOL    HW114255   1.484   5.323   8.813
 3487SOL    HW214256   1.444   5.175   8.869
 3488SOL     OW14257   0.438   4.116   8.947
 3488SOL    HW114258   0.520   4.060   8.956
 3488SOL    HW214259   0.357   4.058   8.951
 3489SOL     OW14260   1.603   4.171   8.185
 3489SOL    HW114261   1.529   4.217   8.135
 3489SOL    HW214262   1.654   4.239   8.238
 3490SOL     OW14263   1.127   5.065   9.138
 3490SOL    HW114264   1.174   5.065   9.226
 3490SOL    HW214265   1.079   4.978   9.127
 3491SOL     OW14266   0.240   4.815   8.334
 3491SOL    HW114267   0.254   4.731   8.386
 3491SOL    HW214268   0.185   4.879   8.389
 3492SOL     OW14269   0.620   5.510   8.887
 3492SOL    HW114270   0.528   5.493   8.922
 3492SOL    HW214271   0.648   5.602   8.913
 3493SOL     OW14272   0.606   4.688   7.571
 3493SOL    HW114273   0.613   4.772   7.517
 3493SOL    HW214274   0.652   4.701   7.659
 3494SOL     OW14275   1.594   3.838   8.928
 3494SOL    HW114276   1.576   3.905   8.856
 3494SOL    HW214277   1.591   3.884   9.017
 3495SOL     OW14278   0.122   4.367   8.011
 3495SOL    HW114279   0.077   4.279   8.028
 3495SOL    HW214280   0.121   4.421   8.095
 3496SOL     OW14281   1.842   5.491   7.807
 3496SOL    HW114282   1.896   5.462   7.887
 3496SOL    HW214283   1.872   5.581   7.778
 3497SOL     OW14284   1.689   4.646   8.060
 3497SOL    HW114285   1.784   4.617   8.068
 3497SOL    HW214286   1.681   4.711   7.985
 3498SOL     OW14287   1.641   4.832   7.880
 3498SOL    HW114288   1.727   4.834   7.828
 3498SOL    HW214289   1.655   4.879   7.968
 3499SOL     OW14290   0.113   4.461   9.045
 3499SOL    HW114291   0.201   4.448   9.090
 3499SOL    HW214292   0.100   4.558   9.023
 3500SOL     OW14293   0.613   5.089   8.174
 3500SOL    HW114294   0.564   5.002   8.183
 3500SOL    HW214295   0.590   5.132   8.087
 3501SOL     OW14296   1.293   4.952   8.871
 3501SOL    HW114297   1.330   4.879   8.813
 3501SOL    HW214298   1.345   4.957   8.956
 3502SOL     OW14299   0.809   3.728   7.950
 3502SOL    HW114300   0.849   3.819   7.941
 3502SOL    HW214301   0.709   3.736   7.956
 3503SOL     OW14302   0.197   4.700   8.712
 3503SOL    HW114303   0.286   4.655   8.698
 3503SOL    HW214304   0.124   4.635   8.693
 3504SOL     OW14305   1.187   5.516   9.064
 3504SOL    HW114306   1.211   5.576   8.988
 3504SOL    HW214307   1.194   5.421   9.034
 3505SOL     OW14308   1.466   5.141   8.401
 3505SOL    HW114309   1.407   5.147   8.481
 3505SOL    HW214310   1.451   5.053   8.355
 3506SOL     OW14311   1.667   5.438   8.020
 3506SOL    HW114312   1.626   5.415   7.932
 3506SOL    HW214313   1.649   5.364   8.085
 3507SOL     OW14314   0.598   4.453   7.718
 3507SOL    HW114315   0.622   4.522   7.650
 3507SOL    HW214316   0.520   4.486   7.772
 3508SOL     OW14317   1.281   4.069   8.392
 3508SOL    HW114318   1.195   4.019   8.379
 3508SOL    HW214319   1.343   4.015   8.448
 3509SOL     OW14320   1.576   5.386   7.755
 3509SOL    HW114321   1.665   5.432   7.758
 3509SOL    HW214322   1.555   5.362   7.660
 3510SOL     OW14323   0.807   4.329   8.913
 3510SOL    HW114324   0.760   4.326   9.002
 3510SOL    HW214325   0.756   4.274   8.847
 3511SOL     OW14326   1.394   4.193   9.122
 3511SOL    HW114327   1.374   4.236   9.210
 3511SOL    HW214328   1.472   4.131   9.131
 3512SOL     OW14329   0.973   4.614   9.020
 3512SOL    HW114330   1.019   4.530   8.991
 3512SOL    HW214331   0.917   4.648   8.945
 3513SOL     OW14332   0.991   4.134   8.690
 3513SOL    HW114333   0.914   4.168   8.744
 3513SOL    HW214334   0.957   4.083   8.611
 3514SOL     OW14335   1.041   4.425   7.877
 3514SOL    HW114336   1.067   4.421   7.973
 3514SOL    HW214337   0.956   4.374   7.863
 3515SOL     OW14338   0.076   4.535   8.237
 3515SOL    HW114339   0.175   4.523   8.246
 3515SOL    HW214340   0.052   4.630   8.258
 3516SOL     OW14341   0.130   5.545   9.019
 3516SOL    HW114342   0.120   5.530   9.118
 3516SOL    HW214343   0.044   5.581   8.983
 3517SOL     OW14344   0.865   4.072   7.643
 3517SOL    HW114345   0.924   4.135   7.594
 3517SOL    HW214346   0.884   3.978   7.614
 3518SOL     OW14347   1.719   4.309   9.279
 3518SOL    HW114348   1.693   4.398   9.243
 3518SOL    HW214349   1.717   4.241   9.206
 3519SOL     OW14350   1.362   4.868   7.993
 3519SOL    HW114351   1.445   4.839   7.945
 3519SOL    HW214352   1.313   4.935   7.937
 3520SOL     OW14353   0.550   3.920   8.333
 3520SOL    HW114354   0.545   3.915   8.433
 3520SOL    HW214355   0.552   4.016   8.304
 3521SOL     OW14356   1.008   5.180   7.925
 3521SOL    HW114357   0.962   5.252   7.873
 3521SOL    HW214358   1.004   5.200   8.023
 3522SOL     OW14359   0.351   5.525   8.301
 3522SOL    HW114360   0.401   5.439   8.307
 3522SOL    HW214361   0.416   5.602   8.298
 3523SOL     OW14362   1.795   4.790   8.321
 3523SOL    HW114363   1.733   4.775   8.245
 3523SOL    HW214364   1.743   4.801   8.406
 3524SOL     OW14365   1.227   5.274   8.954
 3524SOL    HW114366   1.233   5.197   9.018
 3524SOL    HW214367   1.175   5.248   8.874
 3525SOL     OW14368   0.321   4.667   7.690
 3525SOL    HW114369   0.403   4.706   7.648
 3525SOL    HW214370   0.294   4.585   7.641
 3526SOL     OW14371   1.458   4.459   8.176
 3526SOL    HW114372   1.453   4.394   8.251
 3526SOL    HW214373   1.538   4.518   8.189
 3527SOL     OW14374   0.461   4.990   9.175
 3527SOL    HW114375   0.411   4.991   9.089
 3527SOL    HW214376   0.398   4.972   9.251
 3528SOL     OW14377   1.111   5.500   7.685
 3528SOL    HW114378   1.051   5.438   7.735
 3528SOL    HW214379   1.142   5.456   7.600
 3529SOL     OW14380   0.464   5.467   7.771
 3529SOL    HW114381   0.497   5.506   7.857
 3529SOL    HW214382   0.540   5.460   7.706
 3530SOL     OW14383   1.400   3.831   7.874
 3530SOL    HW114384   1.376   3.794   7.784
 3530SOL    HW214385   1.499   3.847   7.878
 3531SOL     OW14386   0.249   5.509   8.689
 3531SOL    HW114387   0.306   5.444   8.739
 3531SOL    HW214388   0.233   5.476   8.596
 3532SOL     OW14389   0.940   5.422   8.352
 3532SOL    HW114390   1.020   5.365   8.373
 3532SOL    HW214391   0.891   5.382   8.275
 3533SOL     OW14392   0.382   4.424   7.928
 3533SOL    HW114393   0.427   4.334   7.925
 3533SOL    HW214394   0.288   4.413   7.961
 3534SOL     OW14395   1.547   3.946   9.177
 3534SOL    HW114396   1.542   3.983   9.269
 3534SOL    HW214397   1.475   3.877   9.165
 3535SOL     OW14398   0.614   3.846   7.565
 3535SOL    HW114399   0.712   3.824   7.572
 3535SOL    HW214400   0.583   3.829   7.472
 3536SOL     OW14401   0.781   3.988   9.197
 3536SOL    HW114402   0.848   3.927   9.240
 3536SOL    HW214403   0.708   4.007   9.262
 3537SOL     OW14404   0.888   5.238   8.643
 3537SOL    HW114405   0.865   5.213   8.549
 3537SOL    HW214406   0.949   5.169   8.682
 3538SOL     OW14407   1.351   4.314   8.881
 3538SOL    HW114408   1.379   4.271   8.966
 3538SOL    HW214409   1.376   4.410   8.882
 3539SOL     OW14410   0.803   5.126   8.372
 3539SOL    HW114411   0.893   5.140   8.330
 3539SOL    HW214412   0.732   5.128   8.301
 3540SOL     OW14413   0.922   4.227   8.347
 3540SOL    HW114414   0.897   4.218   8.251
 3540SOL    HW214415   0.970   4.145   8.378
 3541SOL     OW14416   1.434   4.912   7.489
 3541SOL    HW114417   1.466   4.836   7.546
 3541SOL    HW214418   1.342   4.939   7.519
 3542SOL     OW14419   0.297   3.759   7.619
 3542SOL    HW114420   0.346   3.843   7.598
 3542SOL    HW214421   0.359   3.694   7.664
 3543SOL     OW14422   0.935   3.960   7.928
 3543SOL    HW114423   0.887   4.001   7.850
 3543SOL    HW214424   1.034   3.958   7.909
 3544SOL     OW14425   1.076   4.407   8.912
 3544SOL    HW114426   0.996   4.346   8.915
 3544SOL    HW214427   1.157   4.354   8.888
 3545SOL     OW14428   1.227   5.294   8.241
 3545SOL    HW114429   1.248   5.368   8.176
 3545SOL    HW214430   1.295   5.294   8.314
 3546SOL     OW14431   0.459   4.876   8.189
 3546SOL    HW114432   0.388   4.849   8.254
 3546SOL    HW214433   0.433   4.848   8.096
 3547SOL     OW14434   1.271   5.521   8.039
 3547SOL    HW114435   1.315   5.585   7.975
 3547SOL    HW214436   1.221   5.573   8.109
 3548SOL     OW14437   1.032   4.273   7.464
 3548SOL    HW114438   0.991   4.355   7.425
 3548SOL    HW214439   1.096   4.299   7.537
 3549SOL     OW14440   0.078   4.280   8.834
 3549SOL    HW114441   0.170   4.279   8.793
 3549SOL    HW214442   0.072   4.354   8.901
 3550SOL     OW14443   0.561   3.946   8.595
 3550SOL    HW114444   0.599   3.862   8.632
 3550SOL    HW214445   0.473   3.965   8.639
 3551SOL     OW14446   0.866   4.178   8.090
 3551SOL    HW114447   0.834   4.250   8.028
 3551SOL    HW214448   0.890   4.097   8.037
 3552SOL     OW14449   1.017   3.763   8.201
 3552SOL    HW114450   0.945   3.768   8.132
 3552SOL    HW214451   0.993   3.694   8.270
 3553SOL     OW14452   1.429   4.897   8.315
 3553SOL    HW114453   1.374   4.813   8.308
 3553SOL    HW214454   1.455   4.926   8.223
 3554SOL     OW14455   1.466   4.314   8.440
 3554SOL    HW114456   1.436   4.219   8.447
 3554SOL    HW214457   1.539   4.330   8.506
 3555SOL     OW14458   1.857   4.557   7.825
 3555SOL    HW114459   1.899   4.493   7.889
 3555SOL    HW214460   1.819   4.506   7.747
 3556SOL     OW14461   0.488   5.109   7.622
 3556SOL    HW114462   0.401   5.094   7.669
 3556SOL    HW214463   0.471   5.135   7.527
 3557SOL     OW14464   1.664   5.004   8.105
 3557SOL    HW114465   1.763   5.012   8.119
 3557SOL    HW214466   1.619   5.088   8.136
 3558SOL     OW14467   1.390   4.299   7.526
 3558SOL    HW114468   1.336   4.278   7.607
 3558SOL    HW214469   1.481   4.258   7.535
 3559SOL     OW14470   1.754   4.947   9.036
 3559SOL    HW114471   1.845   4.908   9.023
 3559SOL    HW214472   1.762   5.043   9.060
 3560SOL     OW14473   1.064   5.071   8.788
 3560SOL    HW114474   0.984   5.048   8.843
 3560SOL    HW214475   1.147   5.045   8.837
 3561SOL     OW14476   1.592   5.353   9.073
 3561SOL    HW114477   1.619   5.387   8.983
 3561SOL    HW214478   1.671   5.315   9.119
 3562SOL     OW14479   1.111   4.919   8.548
 3562SOL    HW114480   1.071   4.963   8.629
 3562SOL    HW214481   1.070   4.956   8.465
 3563SOL     OW14482   1.638   4.823   8.527
 3563SOL    HW114483   1.643   4.904   8.586
 3563SOL    HW214484   1.552   4.825   8.476
 3564SOL     OW14485   0.915   3.813   8.850
 3564SOL    HW114486   0.940   3.793   8.755
 3564SOL    HW214487   0.987   3.869   8.892
 3565SOL     OW14488   0.980   4.840   9.167
 3565SOL    HW114489   0.881   4.846   9.177
 3565SOL    HW214490   1.003   4.760   9.111
 3566SOL     OW14491   0.705   4.774   7.816
 3566SOL    HW114492   0.691   4.781   7.915
 3566SOL    HW214493   0.789   4.723   7.798
 3567SOL     OW14494   0.410   4.537   8.699
 3567SOL    HW114495   0.496   4.549   8.749
 3567SOL    HW214496   0.368   4.450   8.726
 3568SOL     OW14497   1.274   4.110   8.710
 3568SOL    HW114498   1.295   4.184   8.774
 3568SOL    HW214499   1.185   4.127   8.667
 3569SOL     OW14500   0.064   5.288   8.779
 3569SOL    HW114501   0.018   5.370   8.745
 3569SOL    HW214502   0.162   5.307   8.788
 3570SOL     OW14503   0.367   4.824   7.949
 3570SOL    HW114504   0.360   4.907   7.893
 3570SOL    HW214505   0.371   4.744   7.889
 3571SOL     OW14506   0.566   4.261   8.313
 3571SOL    HW114507   0.578   4.327   8.239
 3571SOL    HW214508   0.612   4.295   8.396
 3572SOL     OW14509   1.252   5.072   7.836
 3572SOL    HW114510   1.302   5.149   7.876
 3572SOL    HW214511   1.157   5.074   7.868
 3573SOL     OW14512   1.272   5.169   8.590
 3573SOL    HW114513   1.319   5.182   8.677
 3573SOL    HW214514   1.206   5.095   8.599
 3574SOL     OW14515   1.582   4.363   7.920
 3574SOL    HW114516   1.551   4.424   7.993
 3574SOL    HW214517   1.632   4.415   7.851
 3575SOL     OW14518   0.354   5.234   8.777
 3575SOL    HW114519   0.333   5.190   8.690
 3575SOL    HW214520   0.451   5.260   8.780
 3576SOL     OW14521   0.402   4.475   9.046
 3576SOL    HW114522   0.470   4.530   8.999
 3576SOL    HW214523   0.442   4.387   9.073
 3577SOL     OW14524   1.587   4.503   9.118
 3577SOL    HW114525   1.495   4.541   9.113
 3577SOL    HW214526   1.647   4.550   9.053
 3578SOL     OW14527   1.013   3.829   9.218
 3578SOL    HW114528   1.019   3.914   9.166
 3578SOL    HW214529   1.045   3.753   9.161
 3579SOL     OW14530   0.573   4.594   8.477
 3579SOL    HW114531   0.617   4.683   8.468
 3579SOL    HW214532   0.510   4.594   8.554
 3580SOL     OW14533   1.360   4.586   8.493
 3580SOL    HW114534   1.285   4.586   8.427
 3580SOL    HW214535   1.397   4.494   8.502
 3581SOL     OW14536   1.209   4.249   7.723
 3581SOL    HW114537   1.222   4.165   7.777
 3581SOL    HW214538   1.180   4.323   7.783
 3582SOL     OW14539   0.307   3.937   8.679
 3582SOL    HW114540   0.284   3.974   8.769
 3582SOL    HW214541   0.277   3.842   8.673
 3583SOL     OW14542   0.037   5.034   8.730
 3583SOL    HW114543   0.090   4.985   8.798
 3583SOL    HW214544   0.059   5.132   8.735
 3584SOL     OW14545   0.732   4.358   8.512
 3584SOL    HW114546   0.791   4.332   8.436
 3584SOL    HW214547   0.704   4.454   8.501
 3585SOL     OW14548   1.728   4.659   9.302
 3585SOL    HW114549   1.682   4.652   9.213
 3585SOL    HW214550   1.666   4.703   9.368
 3586SOL     OW14551   1.622   4.091   7.822
 3586SOL    HW114552   1.624   4.015   7.886
 3586SOL    HW214553   1.574   4.168   7.862
 3587SOL     OW14554   1.023   4.490   8.414
 3587SOL    HW114555   1.038   4.511   8.510
 3587SOL    HW214556   0.993   4.395   8.405
 3588SOL     OW14557   0.980   5.297   9.148
 3588SOL    HW114558   0.960   5.341   9.060
 3588SOL    HW214559   1.019   5.206   9.132
 3589SOL     OW14560   1.859   5.242   9.053
 3589SOL    HW114561   1.873   5.269   8.958
 3589SOL    HW214562   1.942   5.264   9.106
 3590SOL     OW14563   0.350   4.622   9.252
 3590SOL    HW114564   0.426   4.666   9.300
 3590SOL    HW214565   0.385   4.575   9.170
 3591SOL     OW14566   1.540   3.998   7.573
 3591SOL    HW114567   1.479   3.923   7.596
 3591SOL    HW214568   1.562   4.050   7.656
 3592SOL     OW14569   1.303   4.562   7.490
 3592SOL    HW114570   1.337   4.469   7.505
 3592SOL    HW214571   1.321   4.589   7.395
 3593SOL     OW14572   1.068   5.057   8.297
 3593SOL    HW114573   1.075   4.973   8.242
 3593SOL    HW214574   1.130   5.126   8.261
 3594SOL     OW14575   0.319   4.534   8.397
 3594SOL    HW114576   0.412   4.570   8.402
 3594SOL    HW214577   0.313   4.449   8.449
 3595SOL     OW14578   0.339   4.233   8.454
 3595SOL    HW114579   0.287   4.150   8.437
 3595SOL    HW214580   0.416   4.238   8.390
 3596SOL     OW14581   1.138   4.104   9.126
 3596SOL    HW114582   1.093   4.167   9.190
 3596SOL    HW214583   1.231   4.135   9.109
 3597SOL     OW14584   1.160   3.931   8.925
 3597SOL    HW114585   1.160   3.995   9.002
 3597SOL    HW214586   1.188   3.979   8.842
 3598SOL     OW14587   0.008   5.050   7.648
 3598SOL    HW114588  -0.085   5.071   7.617
 3598SOL    HW214589   0.018   4.951   7.661
 3599SOL     OW14590   0.088   5.525   8.375
 3599SOL    HW114591   0.046   5.439   8.348
 3599SOL    HW214592   0.182   5.528   8.341
 3600SOL     OW14593   0.504   5.292   8.358
 3600SOL    HW114594   0.570   5.366   8.367
 3600SOL    HW214595   0.548   5.213   8.316
 3601SOL     OW14596   1.002   4.520   8.686
 3601SOL    HW114597   1.043   4.488   8.772
 3601SOL    HW214598   0.906   4.493   8.683
 3602SOL     OW14599   0.040   4.268   8.562
 3602SOL    HW114600   0.125   4.235   8.521
 3602SOL    HW214601   0.053   4.283   8.660
 3603SOL     OW14602   0.189   4.244   9.170
 3603SOL    HW114603   0.248   4.204   9.100
 3603SOL    HW214604   0.131   4.315   9.129
 3604SOL     OW14605   1.369   4.674   9.108
 3604SOL    HW114606   1.408   4.763   9.128
 3604SOL    HW214607   1.379   4.654   9.011
 3605SOL     OW14608   0.815   4.296   7.773
 3605SOL    HW114609   0.822   4.207   7.727
 3605SOL    HW214610   0.721   4.330   7.765
 3606SOL     OW14611   1.657   4.328   8.654
 3606SOL    HW114612   1.619   4.259   8.716
 3606SOL    HW214613   1.739   4.292   8.610
 3607SOL     OW14614   0.252   5.288   9.192
 3607SOL    HW114615   0.222   5.345   9.268
 3607SOL    HW214616   0.245   5.191   9.218
 3608SOL     OW14617   0.671   4.188   8.717
 3608SOL    HW114618   0.637   4.099   8.687
 3608SOL    HW214619   0.697   4.242   8.637
 3609SOL     OW14620   0.930   5.402   8.913
 3609SOL    HW114621   0.906   5.384   8.818
 3609SOL    HW214622   0.960   5.496   8.923
 3610SOL     OW14623   0.473   4.224   7.639
 3610SOL    HW114624   0.534   4.304   7.643
 3610SOL    HW214625   0.378   4.255   7.646
 3611SOL     OW14626   0.159   4.861   8.914
 3611SOL    HW114627   0.181   4.800   8.990
 3611SOL    HW214628   0.169   4.812   8.828
 3612SOL     OW14629   1.347   4.783   8.682
 3612SOL    HW114630   1.371   4.720   8.608
 3612SOL    HW214631   1.257   4.823   8.664
 3613SOL     OW14632   1.302   4.579   7.757
 3613SOL    HW114633   1.216   4.548   7.799
 3613SOL    HW214634   1.298   4.565   7.658
 3614SOL     OW14635   1.759   5.471   8.602
 3614SOL    HW114636   1.820   5.501   8.529
 3614SOL    HW214637   1.721   5.382   8.580
 3615SOL     OW14638   1.252   5.455   8.576
 3615SOL    HW114639   1.336   5.460   8.522
 3615SOL    HW214640   1.229   5.359   8.594
 3616SOL     OW14641   0.083   4.982   8.470
 3616SOL    HW114642   0.078   4.981   8.570
 3616SOL    HW214643   0.000   4.941   8.432
 3617SOL     OW14644   0.688   5.386   9.164
 3617SOL    HW114645   0.632   5.467   9.173
 3617SOL    HW214646   0.740   5.390   9.078
 3618SOL     OW14647   1.726   3.859   7.971
 3618SOL    HW114648   1.799   3.842   7.904
 3618SOL    HW214649   1.695   3.772   8.009
 3619SOL     OW14650   1.388   5.297   7.925
 3619SOL    HW114651   1.455   5.309   7.851
 3619SOL    HW214652   1.348   5.386   7.948
 3620SOL     OW14653   0.130   5.518   9.299
 3620SOL    HW114654   0.089   5.444   9.352
 3620SOL    HW214655   0.194   5.569   9.357
 3621SOL     OW14656   1.280   4.651   8.120
 3621SOL    HW114657   1.340   4.570   8.122
 3621SOL    HW214658   1.320   4.720   8.060
 3622SOL     OW14659   0.830   4.997   8.870
 3622SOL    HW114660   0.825   5.030   8.965
 3622SOL    HW214661   0.744   5.016   8.824
 3623SOL     OW14662   0.672   5.340   7.602
 3623SOL    HW114663   0.681   5.350   7.503
 3623SOL    HW214664   0.632   5.251   7.623
 3624SOL     OW14665   1.650   5.444   8.842
 3624SOL    HW114666   1.703   5.454   8.758
 3624SOL    HW214667   1.623   5.534   8.876
 3625SOL     OW14668   1.841   3.899   8.411
 3625SOL    HW114669   1.880   3.814   8.375
 3625SOL    HW214670   1.743   3.901   8.392
 3626SOL     OW14671   0.263   4.050   8.168
 3626SOL    HW114672   0.184   4.101   8.134
 3626SOL    HW214673   0.254   4.035   8.266
 3627SOL     OW14674   1.194   5.336   7.479
 3627SOL    HW114675   1.200   5.243   7.516
 3627SOL    HW214676   1.135   5.336   7.399
 3628SOL     OW14677   0.822   4.726   8.820
 3628SOL    HW114678   0.862   4.725   8.728
 3628SOL    HW214679   0.832   4.818   8.860
 3629SOL     OW14680   0.916   4.634   7.739
 3629SOL    HW114681   0.979   4.672   7.671
 3629SOL    HW214682   0.956   4.551   7.778
 3630SOL     OW14683   1.504   5.331   7.492
 3630SOL    HW114684   1.412   5.368   7.499
 3630SOL    HW214685   1.542   5.351   7.402
 3631SOL     OW14686   0.372   5.012   8.938
 3631SOL    HW114687   0.359   5.105   8.904
 3631SOL    HW214688   0.288   4.960   8.925
 3632SOL     OW14689   1.614   5.016   8.737
 3632SOL    HW114690   1.674   5.019   8.817
 3632SOL    HW214691   1.539   5.080   8.750
 3633SOL     OW14692   1.039   4.822   8.144
 3633SOL    HW114693   0.969   4.775   8.198
 3633SOL    HW214694   1.098   4.754   8.101
 3634SOL     OW14695   1.014   3.960   8.419
 3634SOL    HW114696   1.006   3.924   8.326
 3634SOL    HW214697   1.012   3.884   8.484
 3635SOL     OW14698   0.590   5.211   7.939
 3635SOL    HW114699   0.632   5.153   7.869
 3635SOL    HW214700   0.546   5.290   7.895
 3636SOL     OW14701   1.709   4.109   8.829
 3636SOL    HW114702   1.782   4.178   8.833
 3636SOL    HW214703   1.737   4.034   8.770
 3637SOL     OW14704   0.105   4.737   9.174
 3637SOL    HW114705   0.028   4.704   9.228
 3637SOL    HW214706   0.190   4.707   9.216
 3638SOL     OW14707   0.672   3.927   8.937
 3638SOL    HW114708   0.762   3.911   8.897
 3638SOL    HW214709   0.680   3.932   9.036
 3639SOL     OW14710   0.075   4.069   7.481
 3639SOL    HW114711  -0.017   4.041   7.452
 3639SOL    HW214712   0.106   4.146   7.425
 3640SOL     OW14713   1.440   4.580   8.846
 3640SOL    HW114714   1.383   4.632   8.783
 3640SOL    HW214715   1.536   4.592   8.822
 3641SOL     OW14716   0.072   3.890   7.766
 3641SOL    HW114717   0.055   3.973   7.712
 3641SOL    HW214718   0.162   3.853   7.744
 3642SOL     OW14719   1.183   5.059   7.567
 3642SOL    HW114720   1.084   5.048   7.569
 3642SOL    HW214721   1.217   5.074   7.660
 3643SOL     OW14722   0.613   4.566   8.879
 3643SOL    HW114723   0.669   4.647   8.862
 3643SOL    HW214724   0.672   4.486   8.882
 3644SOL     OW14725   1.493   5.491   8.407
 3644SOL    HW114726   1.526   5.555   8.338
 3644SOL    HW214727   1.559   5.485   8.482
 3645SOL     OW14728   1.450   4.944   9.081
 3645SOL    HW114729   1.441   4.934   9.180
 3645SOL    HW214730   1.546   4.937   9.055
 3646SOL     OW14731   0.390   5.465   9.008
 3646SOL    HW114732   0.299   5.506   9.006
 3646SOL    HW214733   0.383   5.371   9.040
 3647SOL     OW14734   1.674   4.607   8.702
 3647SOL    HW114735   1.647   4.518   8.665
 3647SOL    HW214736   1.675   4.675   8.629
 3648SOL     OW14737   1.225   4.049   7.897
 3648SOL    HW114738   1.290   3.975   7.886
 3648SOL    HW214739   1.245   4.099   7.981
 3649SOL     OW14740   0.594   4.469   8.100
 3649SOL    HW114741   0.644   4.554   8.081
 3649SOL    HW214742   0.506   4.471   8.052
 3650SOL     OW14743   1.777   4.066   9.090
 3650SOL    HW114744   1.760   4.097   8.996
 3650SOL    HW214745   1.693   4.029   9.128
 3651SOL     OW14746   1.730   4.658   8.965
 3651SOL    HW114747   1.768   4.749   8.980
 3651SOL    HW214748   1.722   4.641   8.866
 3652SOL     OW14749   0.859   5.098   7.464
 3652SOL    HW114750   0.813   5.113   7.552
 3652SOL    HW214751   0.903   5.183   7.434
 3653SOL     OW14752   0.661   5.514   8.401
 3653SOL    HW114753   0.615   5.602   8.388
 3653SOL    HW214754   0.760   5.526   8.394
 3654SOL     OW14755   0.859   4.680   8.309
 3654SOL    HW114756   0.913   4.611   8.357
 3654SOL    HW214757   0.827   4.749   8.375
 3655SOL     OW14758   1.083   4.708   7.535
 3655SOL    HW114759   1.060   4.761   7.453
 3655SOL    HW214760   1.164   4.652   7.516
 3656SOL     OW14761   1.861   5.293   8.299
 3656SOL    HW114762   1.790   5.281   8.229
 3656SOL    HW214763   1.862   5.214   8.359
 3657SOL     OW14764   0.221   5.038   9.292
 3657SOL    HW114765   0.156   4.965   9.271
 3657SOL    HW214766   0.225   5.052   9.390
 3658SOL     OW14767   0.079   4.964   8.101
 3658SOL    HW114768   0.078   4.917   8.189
 3658SOL    HW214769   0.161   4.936   8.050
 3659SOL     OW14770   0.672   5.115   9.072
 3659SOL    HW114771   0.594   5.065   9.110
 3659SOL    HW214772   0.669   5.210   9.103
 3660SOL     OW14773   1.824   3.916   8.675
 3660SOL    HW114774   1.820   3.826   8.719
 3660SOL    HW214775   1.827   3.905   8.576
 3661SOL     OW14776   0.428   4.148   7.968
 3661SOL    HW114777   0.458   4.076   7.906
 3661SOL    HW214778   0.389   4.108   8.051
 3662SOL     OW14779   1.705   5.211   8.552
 3662SOL    HW114780   1.612   5.186   8.525
 3662SOL    HW214781   1.731   5.161   8.634
 3663SOL     OW14782   0.317   4.271   8.728
 3663SOL    HW114783   0.355   4.212   8.800
 3663SOL    HW214784   0.357   4.245   8.640
 3664SOL     OW14785   0.812   5.310   8.135
 3664SOL    HW114786   0.844   5.320   8.041
 3664SOL    HW214787   0.733   5.248   8.137
 3665SOL     OW14788   1.424   3.938   8.560
 3665SOL    HW114789   1.476   3.873   8.615
 3665SOL    HW214790   1.375   4.001   8.621
 3666SOL     OW14791   1.001   3.758   8.602
 3666SOL    HW114792   0.938   3.686   8.571
 3666SOL    HW214793   1.094   3.722   8.602
 3667SOL     OW14794   0.770   5.054   7.749
 3667SOL    HW114795   0.724   4.967   7.766
 3667SOL    HW214796   0.861   5.051   7.790
 3668SOL     OW14797   0.618   5.291   8.732
 3668SOL    HW114798   0.613   5.373   8.789
 3668SOL    HW214799   0.707   5.288   8.687
 3669SOL     OW14800   1.352   3.776   7.616
 3669SOL    HW114801   1.387   3.735   7.532
 3669SOL    HW214802   1.262   3.738   7.636
 3670SOL     OW14803   1.300   4.177   8.139
 3670SOL    HW114804   1.241   4.257   8.143
 3670SOL    HW214805   1.315   4.142   8.232
 3671SOL     OW14806   1.593   3.945   8.330
 3671SOL    HW114807   1.509   3.944   8.384
 3671SOL    HW214808   1.595   4.028   8.274
 3672SOL     OW14809   0.039   4.801   7.748
 3672SOL    HW114810   0.138   4.790   7.739
 3672SOL    HW214811  -0.001   4.715   7.780
 3673SOL     OW14812   0.875   5.370   7.785
 3673SOL    HW114813   0.798   5.335   7.731
 3673SOL    HW214814   0.843   5.441   7.847
 3674SOL     OW14815   0.230   4.352   9.423
 3674SOL    HW114816   0.137   4.350   9.460
 3674SOL    HW214817   0.231   4.313   9.331
 3675SOL     OW14818   1.755   4.331   9.541
 3675SOL    HW114819   1.743   4.318   9.442
 3675SOL    HW214820   1.725   4.250   9.590
 3676SOL     OW14821   0.231   5.437   9.793
 3676SOL    HW114822   0.265   5.514   9.847
 3676SOL    HW214823   0.275   5.437   9.703
 3677SOL     OW14824   0.230   5.158   9.848
 3677SOL    HW114825   0.204   5.254   9.848
 3677SOL    HW214826   0.159   5.104   9.893
 3678SOL     OW14827   0.122   4.367   9.873
 3678SOL    HW114828   0.077   4.279   9.890
 3678SOL    HW214829   0.121   4.421   9.957
 3679SOL     OW14830   1.842   5.491   9.669
 3679SOL    HW114831   1.896   5.462   9.749
 3679SOL    HW214832   1.872   5.581   9.640
 3680SOL     OW14833   0.027   5.320   9.427
 3680SOL    HW114834   0.008   5.224   9.448
 3680SOL    HW214835  -0.006   5.378   9.502
 3681SOL     OW14836   1.689   4.646   9.922
 3681SOL    HW114837   1.784   4.617   9.930
 3681SOL    HW214838   1.681   4.711   9.847
 3682SOL     OW14839   1.641   4.832   9.742
 3682SOL    HW114840   1.727   4.834   9.690
 3682SOL    HW214841   1.655   4.879   9.830
 3683SOL     OW14842   0.613   5.089  10.036
 3683SOL    HW114843   0.564   5.002  10.045
 3683SOL    HW214844   0.590   5.132   9.949
 3684SOL     OW14845   0.809   3.728   9.812
 3684SOL    HW114846   0.849   3.819   9.803
 3684SOL    HW214847   0.709   3.736   9.818
 3685SOL     OW14848   1.525   4.723   9.500
 3685SOL    HW114849   1.462   4.647   9.513
 3685SOL    HW214850   1.573   4.741   9.586
 3686SOL     OW14851   1.576   5.386   9.617
 3686SOL    HW114852   1.665   5.432   9.620
 3686SOL    HW214853   1.555   5.362   9.522
 3687SOL     OW14854   0.076   4.535  10.099
 3687SOL    HW114855   0.175   4.523  10.108
 3687SOL    HW214856   0.052   4.630  10.120
 3688SOL     OW14857   0.865   4.072   9.505
 3688SOL    HW114858   0.924   4.135   9.456
 3688SOL    HW214859   0.884   3.978   9.476
 3689SOL     OW14860   1.362   4.868   9.855
 3689SOL    HW114861   1.445   4.839   9.807
 3689SOL    HW214862   1.313   4.935   9.799
 3690SOL     OW14863   1.008   5.180   9.787
 3690SOL    HW114864   0.962   5.252   9.735
 3690SOL    HW214865   1.004   5.200   9.885
 3691SOL     OW14866   0.351   5.525  10.163
 3691SOL    HW114867   0.401   5.439  10.169
 3691SOL    HW214868   0.416   5.602  10.160
 3692SOL     OW14869   0.321   4.667   9.552
 3692SOL    HW114870   0.403   4.706   9.510
 3692SOL    HW214871   0.294   4.585   9.503
 3693SOL     OW14872   1.111   5.500   9.547
 3693SOL    HW114873   1.051   5.438   9.597
 3693SOL    HW214874   1.142   5.456   9.462
 3694SOL     OW14875   1.632   5.101   9.391
 3694SOL    HW114876   1.600   5.195   9.381
 3694SOL    HW214877   1.556   5.038   9.379
 3695SOL     OW14878   0.464   5.467   9.633
 3695SOL    HW114879   0.497   5.506   9.719
 3695SOL    HW214880   0.540   5.460   9.568
 3696SOL     OW14881   1.400   3.831   9.736
 3696SOL    HW114882   1.376   3.794   9.646
 3696SOL    HW214883   1.499   3.847   9.740
 3697SOL     OW14884   0.382   4.424   9.790
 3697SOL    HW114885   0.427   4.334   9.787
 3697SOL    HW214886   0.288   4.413   9.823
 3698SOL     OW14887   0.614   3.846   9.427
 3698SOL    HW114888   0.712   3.824   9.434
 3698SOL    HW214889   0.583   3.829   9.334
 3699SOL     OW14890   0.539   3.788   9.822
 3699SOL    HW114891   0.458   3.789   9.880
 3699SOL    HW214892   0.542   3.871   9.767
 3700SOL     OW14893   1.434   4.912   9.351
 3700SOL    HW114894   1.466   4.836   9.408
 3700SOL    HW214895   1.342   4.939   9.381
 3701SOL     OW14896   0.297   3.759   9.481
 3701SOL    HW114897   0.346   3.843   9.460
 3701SOL    HW214898   0.359   3.694   9.526
 3702SOL     OW14899   0.459   4.876  10.051
 3702SOL    HW114900   0.388   4.849  10.116
 3702SOL    HW214901   0.433   4.848   9.958
 3703SOL     OW14902   1.271   5.521   9.901
 3703SOL    HW114903   1.315   5.585   9.837
 3703SOL    HW214904   1.221   5.573   9.971
 3704SOL     OW14905   1.032   4.273   9.326
 3704SOL    HW114906   0.991   4.355   9.287
 3704SOL    HW214907   1.096   4.299   9.399
 3705SOL     OW14908   1.857   4.557   9.687
 3705SOL    HW114909   1.899   4.493   9.751
 3705SOL    HW214910   1.819   4.506   9.609
 3706SOL     OW14911   0.488   5.109   9.484
 3706SOL    HW114912   0.401   5.094   9.531
 3706SOL    HW214913   0.471   5.135   9.389
 3707SOL     OW14914   1.390   4.299   9.388
 3707SOL    HW114915   1.336   4.278   9.469
 3707SOL    HW214916   1.481   4.258   9.397
 3708SOL     OW14917   0.705   4.774   9.678
 3708SOL    HW114918   0.691   4.781   9.777
 3708SOL    HW214919   0.789   4.723   9.660
 3709SOL     OW14920   0.367   4.824   9.811
 3709SOL    HW114921   0.360   4.907   9.755
 3709SOL    HW214922   0.371   4.744   9.751
 3710SOL     OW14923   1.252   5.072   9.698
 3710SOL    HW114924   1.302   5.149   9.738
 3710SOL    HW214925   1.157   5.074   9.730
 3711SOL     OW14926   1.582   4.363   9.782
 3711SOL    HW114927   1.551   4.424   9.855
 3711SOL    HW214928   1.632   4.415   9.713
 3712SOL     OW14929   1.209   4.249   9.585
 3712SOL    HW114930   1.222   4.165   9.639
 3712SOL    HW214931   1.180   4.323   9.645
 3713SOL     OW14932   0.307   3.787   9.928
 3713SOL    HW114933   0.296   3.881   9.961
 3713SOL    HW214934   0.302   3.724  10.005
 3714SOL     OW14935   1.622   4.091   9.684
 3714SOL    HW114936   1.624   4.015   9.748
 3714SOL    HW214937   1.574   4.168   9.724
 3715SOL     OW14938   1.540   3.998   9.435
 3715SOL    HW114939   1.479   3.923   9.458
 3715SOL    HW214940   1.562   4.050   9.518
 3716SOL     OW14941   1.303   4.562   9.352
 3716SOL    HW114942   1.337   4.469   9.367
 3716SOL    HW214943   1.321   4.589   9.257
 3717SOL     OW14944   0.008   5.050   9.510
 3717SOL    HW114945  -0.085   5.071   9.479
 3717SOL    HW214946   0.018   4.951   9.523
 3718SOL     OW14947   1.302   4.579   9.619
 3718SOL    HW114948   1.216   4.548   9.661
 3718SOL    HW214949   1.298   4.565   9.520
 3719SOL     OW14950   1.726   3.859   9.833
 3719SOL    HW114951   1.799   3.842   9.766
 3719SOL    HW214952   1.695   3.772   9.871
 3720SOL     OW14953   1.388   5.297   9.787
 3720SOL    HW114954   1.455   5.309   9.713
 3720SOL    HW214955   1.348   5.386   9.810
 3721SOL     OW14956   0.672   5.340   9.464
 3721SOL    HW114957   0.681   5.350   9.365
 3721SOL    HW214958   0.632   5.251   9.485
 3722SOL     OW14959   1.194   5.336   9.341
 3722SOL    HW114960   1.200   5.243   9.378
 3722SOL    HW214961   1.135   5.336   9.261
 3723SOL     OW14962   0.916   4.634   9.601
 3723SOL    HW114963   0.979   4.672   9.533
 3723SOL    HW214964   0.956   4.551   9.640
 3724SOL     OW14965   1.504   5.331   9.354
 3724SOL    HW114966   1.412   5.368   9.361
 3724SOL    HW214967   1.542   5.351   9.264
 3725SOL     OW14968   0.590   5.211   9.801
 3725SOL    HW114969   0.632   5.153   9.731
 3725SOL    HW214970   0.546   5.290   9.757
 3726SOL     OW14971   0.255   5.072   9.600
 3726SOL    HW114972   0.159   5.073   9.573
 3726SOL    HW214973   0.267   5.125   9.684
 3727SOL     OW14974   0.075   4.069   9.343
 3727SOL    HW114975  -0.017   4.041   9.314
 3727SOL    HW214976   0.106   4.146   9.287
 3728SOL     OW14977   0.072   3.890   9.628
 3728SOL    HW114978   0.055   3.973   9.574
 3728SOL    HW214979   0.162   3.853   9.606
 3729SOL     OW14980   1.183   5.059   9.429
 3729SOL    HW114981   1.084   5.048   9.431
 3729SOL    HW214982   1.217   5.074   9.522
 3730SOL     OW14983   0.594   4.469   9.962
 3730SOL    HW114984   0.644   4.554   9.943
 3730SOL    HW214985   0.506   4.471   9.914
 3731SOL     OW14986   0.859   5.098   9.326
 3731SOL    HW114987   0.813   5.113   9.414
 3731SOL    HW214988   0.903   5.183   9.296
 3732SOL     OW14989   1.083   4.708   9.397
 3732SOL    HW114990   1.060   4.761   9.315
 3732SOL    HW214991   1.164   4.652   9.378
 3733SOL     OW14992   0.079   4.964   9.963
 3733SOL    HW114993   0.078   4.917  10.051
 3733SOL    HW214994   0.161   4.936   9.912
 3734SOL     OW14995   0.428   4.148   9.830
 3734SOL    HW114996   0.458   4.076   9.768
 3734SOL    HW214997   0.389   4.108   9.913
 3735SOL     OW14998   0.770   5.054   9.611
 3735SOL    HW114999   0.724   4.967   9.628
 3735SOL    HW215000   0.861   5.051   9.652
 3736SOL     OW15001   1.352   3.776   9.478
 3736SOL    HW115002   1.387   3.735   9.394
 3736SOL    HW215003   1.262   3.738   9.498
 3737SOL     OW15004   0.039   4.801   9.610
 3737SOL    HW115005   0.138   4.790   9.601
 3737SOL    HW215006  -0.001   4.715   9.642
 3738SOL     OW15007   0.875   5.370   9.647
 3738SOL    HW115008   0.798   5.335   9.593
 3738SOL    HW215009   0.843   5.441   9.709
 3739SOL     OW15010   0.230   6.214   0.113
 3739SOL    HW115011   0.137   6.212   0.150
 3739SOL    HW215012   0.231   6.175   0.021
 3740SOL     OW15013   0.225   5.861   0.996
 3740SOL    HW115014   0.260   5.844   1.088
 3740SOL    HW215015   0.137   5.816   0.984
 3741SOL     OW15016   0.019   5.954   0.647
 3741SOL    HW115017  -0.063   5.997   0.686
 3741SOL    HW215018  -0.009   5.881   0.584
 3742SOL     OW15019   0.569   6.861   1.165
 3742SOL    HW115020   0.476   6.854   1.128
 3742SOL    HW215021   0.580   6.950   1.209
 3743SOL     OW15022   1.555   7.097   0.703
 3743SOL    HW115023   1.498   7.081   0.784
 3743SOL    HW215024   1.496   7.107   0.623
 3744SOL     OW15025   1.135   6.289   0.717
 3744SOL    HW115026   1.192   6.367   0.692
 3744SOL    HW215027   1.075   6.315   0.793
 3745SOL     OW15028   1.755   6.193   0.231
 3745SOL    HW115029   1.743   6.180   0.132
 3745SOL    HW215030   1.725   6.112   0.280
 3746SOL     OW15031   0.768   6.730   1.023
 3746SOL    HW115032   0.690   6.747   1.083
 3746SOL    HW215033   0.802   6.817   0.987
 3747SOL     OW15034   0.850   6.384   1.823
 3747SOL    HW115035   0.846   6.460   1.888
 3747SOL    HW215036   0.872   6.420   1.732
 3748SOL     OW15037   0.685   6.598   0.665
 3748SOL    HW115038   0.754   6.582   0.735
 3748SOL    HW215039   0.612   6.655   0.703
 3749SOL     OW15040   0.686   6.747   1.803
 3749SOL    HW115041   0.746   6.826   1.817
 3749SOL    HW215042   0.600   6.778   1.762
 3750SOL     OW15043   0.335   7.021   1.061
 3750SOL    HW115044   0.257   6.990   1.008
 3750SOL    HW215045   0.393   7.079   1.004
 3751SOL     OW15046   1.460   7.091   1.339
 3751SOL    HW115047   1.484   7.185   1.365
 3751SOL    HW215048   1.444   7.037   1.421
 3752SOL     OW15049   0.438   5.978   1.499
 3752SOL    HW115050   0.520   5.922   1.508
 3752SOL    HW215051   0.357   5.920   1.503
 3753SOL     OW15052   1.603   6.033   0.737
 3753SOL    HW115053   1.529   6.079   0.687
 3753SOL    HW215054   1.654   6.101   0.790
 3754SOL     OW15055   0.231   7.299   0.483
 3754SOL    HW115056   0.265   7.376   0.537
 3754SOL    HW215057   0.275   7.299   0.393
 3755SOL     OW15058   1.127   6.927   1.690
 3755SOL    HW115059   1.174   6.927   1.778
 3755SOL    HW215060   1.079   6.840   1.679
 3756SOL     OW15061   0.620   7.372   1.439
 3756SOL    HW115062   0.528   7.355   1.474
 3756SOL    HW215063   0.648   7.464   1.465
 3757SOL     OW15064   0.606   6.550   0.123
 3757SOL    HW115065   0.613   6.634   0.069
 3757SOL    HW215066   0.652   6.563   0.211
 3758SOL     OW15067   1.594   5.700   1.480
 3758SOL    HW115068   1.576   5.767   1.408
 3758SOL    HW215069   1.591   5.746   1.569
 3759SOL     OW15070   0.122   6.229   0.563
 3759SOL    HW115071   0.077   6.141   0.580
 3759SOL    HW215072   0.121   6.283   0.647
 3760SOL     OW15073   1.842   7.353   0.359
 3760SOL    HW115074   1.896   7.324   0.439
 3760SOL    HW215075   1.872   7.443   0.330
 3761SOL     OW15076   0.027   7.182   0.117
 3761SOL    HW115077   0.008   7.086   0.138
 3761SOL    HW215078  -0.006   7.240   0.192
 3762SOL     OW15079   1.689   6.508   0.612
 3762SOL    HW115080   1.784   6.479   0.620
 3762SOL    HW215081   1.681   6.573   0.537
 3763SOL     OW15082   1.641   6.694   0.432
 3763SOL    HW115083   1.727   6.696   0.380
 3763SOL    HW215084   1.655   6.741   0.520
 3764SOL     OW15085   0.113   6.323   1.597
 3764SOL    HW115086   0.201   6.310   1.642
 3764SOL    HW215087   0.100   6.420   1.575
 3765SOL     OW15088   0.613   6.951   0.726
 3765SOL    HW115089   0.564   6.864   0.735
 3765SOL    HW215090   0.590   6.994   0.639
 3766SOL     OW15091   1.293   6.814   1.423
 3766SOL    HW115092   1.330   6.741   1.365
 3766SOL    HW215093   1.345   6.819   1.508
 3767SOL     OW15094   0.809   5.590   0.502
 3767SOL    HW115095   0.849   5.681   0.493
 3767SOL    HW215096   0.709   5.598   0.508
 3768SOL     OW15097   0.197   6.562   1.264
 3768SOL    HW115098   0.286   6.517   1.250
 3768SOL    HW215099   0.124   6.497   1.245
 3769SOL     OW15100   1.525   6.585   0.190
 3769SOL    HW115101   1.462   6.509   0.203
 3769SOL    HW215102   1.573   6.603   0.276
 3770SOL     OW15103   1.187   7.378   1.616
 3770SOL    HW115104   1.211   7.438   1.540
 3770SOL    HW215105   1.194   7.283   1.586
 3771SOL     OW15106   1.466   7.003   0.953
 3771SOL    HW115107   1.407   7.009   1.033
 3771SOL    HW215108   1.451   6.915   0.907
 3772SOL     OW15109   1.667   7.300   0.572
 3772SOL    HW115110   1.626   7.277   0.484
 3772SOL    HW215111   1.649   7.226   0.637
 3773SOL     OW15112   1.281   5.931   0.944
 3773SOL    HW115113   1.195   5.881   0.931
 3773SOL    HW215114   1.343   5.877   1.000
 3774SOL     OW15115   1.576   7.248   0.307
 3774SOL    HW115116   1.665   7.294   0.310
 3774SOL    HW215117   1.555   7.224   0.212
 3775SOL     OW15118   0.807   6.191   1.465
 3775SOL    HW115119   0.760   6.188   1.554
 3775SOL    HW215120   0.756   6.136   1.399
 3776SOL     OW15121   1.394   6.055   1.674
 3776SOL    HW115122   1.374   6.098   1.762
 3776SOL    HW215123   1.472   5.993   1.683
 3777SOL     OW15124   0.973   6.476   1.572
 3777SOL    HW115125   1.019   6.392   1.543
 3777SOL    HW215126   0.917   6.510   1.497
 3778SOL     OW15127   0.991   5.996   1.242
 3778SOL    HW115128   0.914   6.030   1.296
 3778SOL    HW215129   0.957   5.945   1.163
 3779SOL     OW15130   1.041   6.287   0.429
 3779SOL    HW115131   1.067   6.283   0.525
 3779SOL    HW215132   0.956   6.236   0.415
 3780SOL     OW15133   0.076   6.397   0.789
 3780SOL    HW115134   0.175   6.385   0.798
 3780SOL    HW215135   0.052   6.492   0.810
 3781SOL     OW15136   0.130   7.407   1.571
 3781SOL    HW115137   0.120   7.392   1.670
 3781SOL    HW215138   0.044   7.443   1.535
 3782SOL     OW15139   0.865   5.934   0.195
 3782SOL    HW115140   0.924   5.997   0.146
 3782SOL    HW215141   0.884   5.840   0.166
 3783SOL     OW15142   1.362   6.730   0.545
 3783SOL    HW115143   1.445   6.701   0.497
 3783SOL    HW215144   1.313   6.797   0.489
 3784SOL     OW15145   0.550   5.782   0.885
 3784SOL    HW115146   0.545   5.777   0.985
 3784SOL    HW215147   0.552   5.878   0.856
 3785SOL     OW15148   1.008   7.042   0.477
 3785SOL    HW115149   0.962   7.114   0.425
 3785SOL    HW215150   1.004   7.062   0.575
 3786SOL     OW15151   0.351   7.387   0.853
 3786SOL    HW115152   0.401   7.301   0.859
 3786SOL    HW215153   0.416   7.464   0.850
 3787SOL     OW15154   1.795   6.652   0.873
 3787SOL    HW115155   1.733   6.637   0.797
 3787SOL    HW215156   1.743   6.663   0.958
 3788SOL     OW15157   1.227   7.136   1.506
 3788SOL    HW115158   1.233   7.059   1.570
 3788SOL    HW215159   1.175   7.110   1.426
 3789SOL     OW15160   1.458   6.321   0.728
 3789SOL    HW115161   1.453   6.256   0.803
 3789SOL    HW215162   1.538   6.380   0.741
 3790SOL     OW15163   0.461   6.852   1.727
 3790SOL    HW115164   0.411   6.853   1.641
 3790SOL    HW215165   0.398   6.834   1.803
 3791SOL     OW15166   1.111   7.362   0.237
 3791SOL    HW115167   1.051   7.300   0.287
 3791SOL    HW215168   1.142   7.318   0.152
 3792SOL     OW15169   0.202   5.871   1.498
 3792SOL    HW115170   0.122   5.931   1.485
 3792SOL    HW215171   0.192   5.822   1.584
 3793SOL     OW15172   1.632   6.963   0.081
 3793SOL    HW115173   1.600   7.057   0.071
 3793SOL    HW215174   1.556   6.900   0.069
 3794SOL     OW15175   0.464   7.329   0.323
 3794SOL    HW115176   0.497   7.368   0.409
 3794SOL    HW215177   0.540   7.322   0.258
 3795SOL     OW15178   1.400   5.693   0.426
 3795SOL    HW115179   1.376   5.656   0.336
 3795SOL    HW215180   1.499   5.709   0.430
 3796SOL     OW15181   0.249   7.371   1.241
 3796SOL    HW115182   0.306   7.306   1.291
 3796SOL    HW215183   0.233   7.338   1.148
 3797SOL     OW15184   0.614   5.708   0.117
 3797SOL    HW115185   0.712   5.686   0.124
 3797SOL    HW215186   0.583   5.691   0.024
 3798SOL     OW15187   0.781   5.850   1.749
 3798SOL    HW115188   0.848   5.789   1.792
 3798SOL    HW215189   0.708   5.869   1.814
 3799SOL     OW15190   0.888   7.100   1.195
 3799SOL    HW115191   0.865   7.075   1.101
 3799SOL    HW215192   0.949   7.031   1.234
 3800SOL     OW15193   1.351   6.176   1.433
 3800SOL    HW115194   1.379   6.133   1.518
 3800SOL    HW215195   1.376   6.272   1.434
 3801SOL     OW15196   0.803   6.988   0.924
 3801SOL    HW115197   0.893   7.002   0.882
 3801SOL    HW215198   0.732   6.990   0.853
 3802SOL     OW15199   0.922   6.089   0.899
 3802SOL    HW115200   0.897   6.080   0.803
 3802SOL    HW215201   0.970   6.007   0.930
 3803SOL     OW15202   0.539   5.650   0.512
 3803SOL    HW115203   0.458   5.651   0.570
 3803SOL    HW215204   0.542   5.733   0.457
 3804SOL     OW15205   1.434   6.774   0.041
 3804SOL    HW115206   1.466   6.698   0.098
 3804SOL    HW215207   1.342   6.801   0.071
 3805SOL     OW15208   0.935   5.822   0.480
 3805SOL    HW115209   0.887   5.863   0.402
 3805SOL    HW215210   1.034   5.820   0.461
 3806SOL     OW15211   1.076   6.269   1.464
 3806SOL    HW115212   0.996   6.208   1.467
 3806SOL    HW215213   1.157   6.216   1.440
 3807SOL     OW15214   1.227   7.156   0.793
 3807SOL    HW115215   1.248   7.230   0.728
 3807SOL    HW215216   1.295   7.156   0.866
 3808SOL     OW15217   1.271   7.383   0.591
 3808SOL    HW115218   1.315   7.447   0.527
 3808SOL    HW215219   1.221   7.435   0.661
 3809SOL     OW15220   1.032   6.135   0.016
 3809SOL    HW115221   0.991   6.217  -0.023
 3809SOL    HW215222   1.096   6.161   0.089
 3810SOL     OW15223   0.078   6.142   1.386
 3810SOL    HW115224   0.170   6.141   1.345
 3810SOL    HW215225   0.072   6.216   1.453
 3811SOL     OW15226   0.561   5.808   1.147
 3811SOL    HW115227   0.599   5.724   1.184
 3811SOL    HW215228   0.473   5.827   1.191
 3812SOL     OW15229   0.866   6.040   0.642
 3812SOL    HW115230   0.834   6.112   0.580
 3812SOL    HW215231   0.890   5.959   0.589
 3813SOL     OW15232   1.017   5.625   0.753
 3813SOL    HW115233   0.945   5.630   0.684
 3813SOL    HW215234   0.993   5.556   0.822
 3814SOL     OW15235   1.429   6.759   0.867
 3814SOL    HW115236   1.374   6.675   0.860
 3814SOL    HW215237   1.455   6.788   0.775
 3815SOL     OW15238   1.466   6.176   0.992
 3815SOL    HW115239   1.436   6.081   0.999
 3815SOL    HW215240   1.539   6.192   1.058
 3816SOL     OW15241   1.857   6.419   0.377
 3816SOL    HW115242   1.899   6.355   0.441
 3816SOL    HW215243   1.819   6.368   0.299
 3817SOL     OW15244   0.488   6.971   0.174
 3817SOL    HW115245   0.401   6.956   0.221
 3817SOL    HW215246   0.471   6.997   0.079
 3818SOL     OW15247   1.664   6.866   0.657
 3818SOL    HW115248   1.763   6.874   0.671
 3818SOL    HW215249   1.619   6.950   0.688
 3819SOL     OW15250   1.390   6.161   0.078
 3819SOL    HW115251   1.336   6.140   0.159
 3819SOL    HW215252   1.481   6.120   0.087
 3820SOL     OW15253   0.527   5.842   0.328
 3820SOL    HW115254   0.554   5.783   0.253
 3820SOL    HW215255   0.527   5.937   0.297
 3821SOL     OW15256   1.754   6.809   1.588
 3821SOL    HW115257   1.845   6.770   1.575
 3821SOL    HW215258   1.762   6.905   1.612
 3822SOL     OW15259   1.064   6.933   1.340
 3822SOL    HW115260   0.984   6.910   1.395
 3822SOL    HW215261   1.147   6.907   1.389
 3823SOL     OW15262   1.592   7.215   1.625
 3823SOL    HW115263   1.619   7.249   1.535
 3823SOL    HW215264   1.671   7.177   1.671
 3824SOL     OW15265   1.111   6.781   1.100
 3824SOL    HW115266   1.071   6.825   1.181
 3824SOL    HW215267   1.070   6.818   1.017
 3825SOL     OW15268   1.638   6.685   1.079
 3825SOL    HW115269   1.643   6.766   1.138
 3825SOL    HW215270   1.552   6.687   1.028
 3826SOL     OW15271   0.915   5.675   1.402
 3826SOL    HW115272   0.940   5.655   1.307
 3826SOL    HW215273   0.987   5.731   1.444
 3827SOL     OW15274   0.980   6.702   1.719
 3827SOL    HW115275   0.881   6.708   1.729
 3827SOL    HW215276   1.003   6.622   1.663
 3828SOL     OW15277   0.705   6.636   0.368
 3828SOL    HW115278   0.691   6.643   0.467
 3828SOL    HW215279   0.789   6.585   0.350
 3829SOL     OW15280   0.410   6.399   1.251
 3829SOL    HW115281   0.496   6.411   1.301
 3829SOL    HW215282   0.368   6.312   1.278
 3830SOL     OW15283   1.274   5.972   1.262
 3830SOL    HW115284   1.295   6.046   1.326
 3830SOL    HW215285   1.185   5.989   1.219
 3831SOL     OW15286   0.064   7.150   1.331
 3831SOL    HW115287   0.018   7.232   1.297
 3831SOL    HW215288   0.162   7.169   1.340
 3832SOL     OW15289   0.566   6.123   0.865
 3832SOL    HW115290   0.578   6.189   0.791
 3832SOL    HW215291   0.612   6.157   0.948
 3833SOL     OW15292   1.252   6.934   0.388
 3833SOL    HW115293   1.302   7.011   0.428
 3833SOL    HW215294   1.157   6.936   0.420
 3834SOL     OW15295   1.272   7.031   1.142
 3834SOL    HW115296   1.319   7.044   1.229
 3834SOL    HW215297   1.206   6.957   1.151
 3835SOL     OW15298   1.582   6.225   0.472
 3835SOL    HW115299   1.551   6.286   0.545
 3835SOL    HW215300   1.632   6.277   0.403
 3836SOL     OW15301   0.354   7.096   1.329
 3836SOL    HW115302   0.333   7.052   1.242
 3836SOL    HW215303   0.451   7.122   1.332
 3837SOL     OW15304   0.402   6.337   1.598
 3837SOL    HW115305   0.470   6.392   1.551
 3837SOL    HW215306   0.442   6.249   1.625
 3838SOL     OW15307   1.587   6.365   1.670
 3838SOL    HW115308   1.495   6.403   1.665
 3838SOL    HW215309   1.647   6.412   1.605
 3839SOL     OW15310   1.013   5.691   1.770
 3839SOL    HW115311   1.019   5.776   1.718
 3839SOL    HW215312   1.045   5.615   1.713
 3840SOL     OW15313   0.504   5.636   1.740
 3840SOL    HW115314   0.462   5.579   1.670
 3840SOL    HW215315   0.438   5.705   1.772
 3841SOL     OW15316   0.573   6.456   1.029
 3841SOL    HW115317   0.617   6.545   1.020
 3841SOL    HW215318   0.510   6.456   1.106
 3842SOL     OW15319   1.360   6.448   1.045
 3842SOL    HW115320   1.285   6.448   0.979
 3842SOL    HW215321   1.397   6.356   1.054
 3843SOL     OW15322   1.209   6.111   0.275
 3843SOL    HW115323   1.222   6.027   0.329
 3843SOL    HW215324   1.180   6.185   0.335
 3844SOL     OW15325   0.307   5.799   1.231
 3844SOL    HW115326   0.284   5.836   1.321
 3844SOL    HW215327   0.277   5.704   1.225
 3845SOL     OW15328   0.037   6.896   1.282
 3845SOL    HW115329   0.090   6.847   1.350
 3845SOL    HW215330   0.059   6.994   1.287
 3846SOL     OW15331   1.728   6.521   1.854
 3846SOL    HW115332   1.682   6.514   1.765
 3846SOL    HW215333   1.666   6.565   1.920
 3847SOL     OW15334   0.307   5.649   0.618
 3847SOL    HW115335   0.296   5.743   0.651
 3847SOL    HW215336   0.302   5.586   0.695
 3848SOL     OW15337   1.622   5.953   0.374
 3848SOL    HW115338   1.624   5.877   0.438
 3848SOL    HW215339   1.574   6.030   0.414
 3849SOL     OW15340   0.980   7.159   1.700
 3849SOL    HW115341   0.960   7.203   1.612
 3849SOL    HW215342   1.019   7.068   1.684
 3850SOL     OW15343   1.859   7.104   1.605
 3850SOL    HW115344   1.873   7.131   1.510
 3850SOL    HW215345   1.942   7.126   1.658
 3851SOL     OW15346   0.350   6.484   1.804
 3851SOL    HW115347   0.426   6.528   1.852
 3851SOL    HW215348   0.385   6.437   1.722
 3852SOL     OW15349   1.540   5.860   0.125
 3852SOL    HW115350   1.479   5.785   0.148
 3852SOL    HW215351   1.562   5.912   0.208
 3853SOL     OW15352   1.303   6.424   0.042
 3853SOL    HW115353   1.337   6.331   0.057
 3853SOL    HW215354   1.321   6.451  -0.053
 3854SOL     OW15355   1.068   6.919   0.849
 3854SOL    HW115356   1.075   6.835   0.794
 3854SOL    HW215357   1.130   6.988   0.813
 3855SOL     OW15358   0.319   6.396   0.949
 3855SOL    HW115359   0.412   6.432   0.954
 3855SOL    HW215360   0.313   6.311   1.001
 3856SOL     OW15361   0.339   6.095   1.006
 3856SOL    HW115362   0.287   6.012   0.989
 3856SOL    HW215363   0.416   6.100   0.942
 3857SOL     OW15364   1.138   5.966   1.678
 3857SOL    HW115365   1.093   6.029   1.742
 3857SOL    HW215366   1.231   5.997   1.661
 3858SOL     OW15367   1.160   5.793   1.477
 3858SOL    HW115368   1.160   5.857   1.554
 3858SOL    HW215369   1.188   5.841   1.394
 3859SOL     OW15370   0.088   7.387   0.927
 3859SOL    HW115371   0.046   7.301   0.900
 3859SOL    HW215372   0.182   7.390   0.893
 3860SOL     OW15373   0.040   6.130   1.114
 3860SOL    HW115374   0.125   6.097   1.073
 3860SOL    HW215375   0.053   6.145   1.212
 3861SOL     OW15376   1.369   6.536   1.660
 3861SOL    HW115377   1.408   6.625   1.680
 3861SOL    HW215378   1.379   6.516   1.563
 3862SOL     OW15379   0.815   6.158   0.325
 3862SOL    HW115380   0.822   6.069   0.279
 3862SOL    HW215381   0.721   6.192   0.317
 3863SOL     OW15382   1.657   6.190   1.206
 3863SOL    HW115383   1.619   6.121   1.268
 3863SOL    HW215384   1.739   6.154   1.162
 3864SOL     OW15385   0.252   7.150   1.744
 3864SOL    HW115386   0.222   7.207   1.820
 3864SOL    HW215387   0.245   7.053   1.770
 3865SOL     OW15388   0.671   6.050   1.269
 3865SOL    HW115389   0.637   5.961   1.239
 3865SOL    HW215390   0.697   6.104   1.189
 3866SOL     OW15391   0.930   7.264   1.465
 3866SOL    HW115392   0.906   7.246   1.370
 3866SOL    HW215393   0.960   7.358   1.475
 3867SOL     OW15394   0.159   6.723   1.466
 3867SOL    HW115395   0.181   6.662   1.542
 3867SOL    HW215396   0.169   6.674   1.380
 3868SOL     OW15397   1.347   6.645   1.234
 3868SOL    HW115398   1.371   6.582   1.160
 3868SOL    HW215399   1.257   6.685   1.216
 3869SOL     OW15400   1.302   6.441   0.309
 3869SOL    HW115401   1.216   6.410   0.351
 3869SOL    HW215402   1.298   6.427   0.210
 3870SOL     OW15403   1.759   7.333   1.154
 3870SOL    HW115404   1.820   7.363   1.081
 3870SOL    HW215405   1.721   7.244   1.132
 3871SOL     OW15406   1.252   7.317   1.128
 3871SOL    HW115407   1.336   7.322   1.074
 3871SOL    HW215408   1.229   7.221   1.146
 3872SOL     OW15409   0.083   6.844   1.022
 3872SOL    HW115410   0.078   6.843   1.122
 3872SOL    HW215411   0.000   6.803   0.984
 3873SOL     OW15412   0.688   7.248   1.716
 3873SOL    HW115413   0.632   7.329   1.725
 3873SOL    HW215414   0.740   7.252   1.630
 3874SOL     OW15415   0.903   5.672   0.133
 3874SOL    HW115416   0.954   5.673   0.047
 3874SOL    HW215417   0.959   5.630   0.204
 3875SOL     OW15418   1.726   5.721   0.523
 3875SOL    HW115419   1.799   5.704   0.456
 3875SOL    HW215420   1.695   5.634   0.561
 3876SOL     OW15421   1.388   7.159   0.477
 3876SOL    HW115422   1.455   7.171   0.403
 3876SOL    HW215423   1.348   7.248   0.500
 3877SOL     OW15424   1.280   6.513   0.672
 3877SOL    HW115425   1.340   6.432   0.674
 3877SOL    HW215426   1.320   6.582   0.612
 3878SOL     OW15427   0.830   6.859   1.422
 3878SOL    HW115428   0.825   6.892   1.517
 3878SOL    HW215429   0.744   6.878   1.376
 3879SOL     OW15430   0.672   7.202   0.154
 3879SOL    HW115431   0.681   7.212   0.055
 3879SOL    HW215432   0.632   7.113   0.175
 3880SOL     OW15433   1.650   7.306   1.394
 3880SOL    HW115434   1.703   7.316   1.310
 3880SOL    HW215435   1.623   7.396   1.428
 3881SOL     OW15436   1.841   5.761   0.963
 3881SOL    HW115437   1.880   5.676   0.927
 3881SOL    HW215438   1.743   5.763   0.944
 3882SOL     OW15439   0.263   5.912   0.720
 3882SOL    HW115440   0.184   5.963   0.686
 3882SOL    HW215441   0.254   5.897   0.818
 3883SOL     OW15442   1.194   7.198   0.031
 3883SOL    HW115443   1.200   7.105   0.068
 3883SOL    HW215444   1.135   7.198  -0.049
 3884SOL     OW15445   0.822   6.588   1.372
 3884SOL    HW115446   0.862   6.587   1.280
 3884SOL    HW215447   0.832   6.680   1.412
 3885SOL     OW15448   0.916   6.496   0.291
 3885SOL    HW115449   0.979   6.534   0.223
 3885SOL    HW215450   0.956   6.413   0.330
 3886SOL     OW15451   1.504   7.193   0.044
 3886SOL    HW115452   1.412   7.230   0.051
 3886SOL    HW215453   1.542   7.213  -0.046
 3887SOL     OW15454   0.372   6.874   1.490
 3887SOL    HW115455   0.359   6.967   1.456
 3887SOL    HW215456   0.288   6.822   1.477
 3888SOL     OW15457   1.614   6.878   1.289
 3888SOL    HW115458   1.674   6.881   1.369
 3888SOL    HW215459   1.539   6.942   1.302
 3889SOL     OW15460   1.039   6.684   0.696
 3889SOL    HW115461   0.969   6.637   0.750
 3889SOL    HW215462   1.098   6.616   0.653
 3890SOL     OW15463   1.014   5.822   0.971
 3890SOL    HW115464   1.006   5.786   0.878
 3890SOL    HW215465   1.012   5.746   1.036
 3891SOL     OW15466   0.590   7.073   0.491
 3891SOL    HW115467   0.632   7.015   0.421
 3891SOL    HW215468   0.546   7.152   0.447
 3892SOL     OW15469   0.255   6.934   0.290
 3892SOL    HW115470   0.159   6.935   0.263
 3892SOL    HW215471   0.267   6.987   0.374
 3893SOL     OW15472   0.105   6.599   1.726
 3893SOL    HW115473   0.028   6.566   1.780
 3893SOL    HW215474   0.190   6.569   1.768
 3894SOL     OW15475   0.672   5.789   1.489
 3894SOL    HW115476   0.762   5.773   1.449
 3894SOL    HW215477   0.680   5.794   1.588
 3895SOL     OW15478   0.075   5.931   0.033
 3895SOL    HW115479  -0.017   5.903   0.004
 3895SOL    HW215480   0.106   6.008  -0.023
 3896SOL     OW15481   1.440   6.442   1.398
 3896SOL    HW115482   1.383   6.494   1.335
 3896SOL    HW215483   1.536   6.454   1.374
 3897SOL     OW15484   0.072   5.752   0.318
 3897SOL    HW115485   0.055   5.835   0.264
 3897SOL    HW215486   0.162   5.715   0.296
 3898SOL     OW15487   1.183   6.921   0.119
 3898SOL    HW115488   1.084   6.910   0.121
 3898SOL    HW215489   1.217   6.936   0.212
 3899SOL     OW15490   0.613   6.428   1.431
 3899SOL    HW115491   0.669   6.509   1.414
 3899SOL    HW215492   0.672   6.348   1.434
 3900SOL     OW15493   1.493   7.353   0.959
 3900SOL    HW115494   1.526   7.417   0.890
 3900SOL    HW215495   1.559   7.347   1.034
 3901SOL     OW15496   0.716   6.151   1.708
 3901SOL    HW115497   0.735   6.216   1.782
 3901SOL    HW215498   0.776   6.071   1.717
 3902SOL     OW15499   1.450   6.806   1.633
 3902SOL    HW115500   1.441   6.796   1.732
 3902SOL    HW215501   1.546   6.799   1.607
 3903SOL     OW15502   0.390   7.327   1.560
 3903SOL    HW115503   0.299   7.368   1.558
 3903SOL    HW215504   0.383   7.233   1.592
 3904SOL     OW15505   1.674   6.469   1.254
 3904SOL    HW115506   1.647   6.380   1.217
 3904SOL    HW215507   1.675   6.537   1.181
 3905SOL     OW15508   1.225   5.911   0.449
 3905SOL    HW115509   1.290   5.837   0.438
 3905SOL    HW215510   1.245   5.961   0.533
 3906SOL     OW15511   0.594   6.331   0.652
 3906SOL    HW115512   0.644   6.416   0.633
 3906SOL    HW215513   0.506   6.333   0.604
 3907SOL     OW15514   1.730   6.520   1.517
 3907SOL    HW115515   1.768   6.611   1.532
 3907SOL    HW215516   1.722   6.503   1.418
 3908SOL     OW15517   0.859   6.960   0.016
 3908SOL    HW115518   0.813   6.975   0.104
 3908SOL    HW215519   0.903   7.045  -0.014
 3909SOL     OW15520   1.083   6.570   0.087
 3909SOL    HW115521   1.060   6.623   0.005
 3909SOL    HW215522   1.164   6.514   0.068
 3910SOL     OW15523   1.861   7.155   0.851
 3910SOL    HW115524   1.790   7.143   0.781
 3910SOL    HW215525   1.862   7.076   0.911
 3911SOL     OW15526   0.221   6.900   1.844
 3911SOL    HW115527   0.156   6.827   1.823
 3911SOL    HW215528   0.225   6.914   1.942
 3912SOL     OW15529   0.672   6.977   1.624
 3912SOL    HW115530   0.594   6.927   1.662
 3912SOL    HW215531   0.669   7.072   1.655
 3913SOL     OW15532   1.824   5.778   1.227
 3913SOL    HW115533   1.820   5.688   1.271
 3913SOL    HW215534   1.827   5.767   1.128
 3914SOL     OW15535   0.428   6.010   0.520
 3914SOL    HW115536   0.458   5.938   0.458
 3914SOL    HW215537   0.389   5.970   0.603
 3915SOL     OW15538   1.705   7.073   1.104
 3915SOL    HW115539   1.612   7.048   1.077
 3915SOL    HW215540   1.731   7.023   1.186
 3916SOL     OW15541   0.317   6.133   1.280
 3916SOL    HW115542   0.355   6.074   1.352
 3916SOL    HW215543   0.357   6.107   1.192
 3917SOL     OW15544   0.812   7.172   0.687
 3917SOL    HW115545   0.844   7.182   0.593
 3917SOL    HW215546   0.733   7.110   0.689
 3918SOL     OW15547   1.424   5.800   1.112
 3918SOL    HW115548   1.476   5.735   1.167
 3918SOL    HW215549   1.375   5.863   1.173
 3919SOL     OW15550   1.001   5.620   1.154
 3919SOL    HW115551   0.938   5.548   1.123
 3919SOL    HW215552   1.094   5.584   1.154
 3920SOL     OW15553   0.770   6.916   0.301
 3920SOL    HW115554   0.724   6.829   0.318
 3920SOL    HW215555   0.861   6.913   0.342
 3921SOL     OW15556   0.618   7.153   1.284
 3921SOL    HW115557   0.613   7.235   1.341
 3921SOL    HW215558   0.707   7.150   1.239
 3922SOL     OW15559   1.352   5.638   0.168
 3922SOL    HW115560   1.387   5.597   0.084
 3922SOL    HW215561   1.262   5.600   0.188
 3923SOL     OW15562   1.300   6.039   0.691
 3923SOL    HW115563   1.241   6.119   0.695
 3923SOL    HW215564   1.315   6.004   0.784
 3924SOL     OW15565   1.593   5.807   0.882
 3924SOL    HW115566   1.509   5.806   0.936
 3924SOL    HW215567   1.595   5.890   0.826
 3925SOL     OW15568   0.875   7.232   0.337
 3925SOL    HW115569   0.798   7.197   0.283
 3925SOL    HW215570   0.843   7.303   0.399
 3926SOL     OW15571   0.230   6.214   1.975
 3926SOL    HW115572   0.137   6.212   2.012
 3926SOL    HW215573   0.231   6.175   1.883
 3927SOL     OW15574   0.225   5.861   2.858
 3927SOL    HW115575   0.260   5.844   2.950
 3927SOL    HW215576   0.137   5.816   2.846
 3928SOL     OW15577   0.019   5.954   2.509
 3928SOL    HW115578  -0.063   5.997   2.548
 3928SOL    HW215579  -0.009   5.881   2.446
 3929SOL     OW15580   0.569   6.861   3.027
 3929SOL    HW115581   0.476   6.854   2.990
 3929SOL    HW215582   0.580   6.950   3.071
 3930SOL     OW15583   1.555   7.097   2.565
 3930SOL    HW115584   1.498   7.081   2.646
 3930SOL    HW215585   1.496   7.107   2.485
 3931SOL     OW15586   1.135   6.289   2.579
 3931SOL    HW115587   1.192   6.367   2.554
 3931SOL    HW215588   1.075   6.315   2.655
 3932SOL     OW15589   0.768   6.730   2.885
 3932SOL    HW115590   0.690   6.747   2.945
 3932SOL    HW215591   0.802   6.817   2.849
 3933SOL     OW15592   0.850   6.384   3.685
 3933SOL    HW115593   0.846   6.460   3.750
 3933SOL    HW215594   0.872   6.420   3.594
 3934SOL     OW15595   0.685   6.598   2.527
 3934SOL    HW115596   0.754   6.582   2.597
 3934SOL    HW215597   0.612   6.655   2.565
 3935SOL     OW15598   0.686   6.747   3.665
 3935SOL    HW115599   0.746   6.826   3.679
 3935SOL    HW215600   0.600   6.778   3.624
 3936SOL     OW15601   0.335   7.021   2.923
 3936SOL    HW115602   0.257   6.990   2.870
 3936SOL    HW215603   0.393   7.079   2.866
 3937SOL     OW15604   1.460   7.091   3.201
 3937SOL    HW115605   1.484   7.185   3.227
 3937SOL    HW215606   1.444   7.037   3.283
 3938SOL     OW15607   0.438   5.978   3.361
 3938SOL    HW115608   0.520   5.922   3.370
 3938SOL    HW215609   0.357   5.920   3.365
 3939SOL     OW15610   1.603   6.033   2.599
 3939SOL    HW115611   1.529   6.079   2.549
 3939SOL    HW215612   1.654   6.101   2.652
 3940SOL     OW15613   1.127   6.927   3.552
 3940SOL    HW115614   1.174   6.927   3.640
 3940SOL    HW215615   1.079   6.840   3.541
 3941SOL     OW15616   0.240   6.677   2.748
 3941SOL    HW115617   0.254   6.593   2.800
 3941SOL    HW215618   0.185   6.741   2.803
 3942SOL     OW15619   0.620   7.372   3.301
 3942SOL    HW115620   0.528   7.355   3.336
 3942SOL    HW215621   0.648   7.464   3.327
 3943SOL     OW15622   0.606   6.550   1.985
 3943SOL    HW115623   0.613   6.634   1.931
 3943SOL    HW215624   0.652   6.563   2.073
 3944SOL     OW15625   1.594   5.700   3.342
 3944SOL    HW115626   1.576   5.767   3.270
 3944SOL    HW215627   1.591   5.746   3.431
 3945SOL     OW15628   0.122   6.229   2.425
 3945SOL    HW115629   0.077   6.141   2.442
 3945SOL    HW215630   0.121   6.283   2.509
 3946SOL     OW15631   1.842   7.353   2.221
 3946SOL    HW115632   1.896   7.324   2.301
 3946SOL    HW215633   1.872   7.443   2.192
 3947SOL     OW15634   0.027   7.182   1.979
 3947SOL    HW115635   0.008   7.086   2.000
 3947SOL    HW215636  -0.006   7.240   2.054
 3948SOL     OW15637   1.689   6.508   2.474
 3948SOL    HW115638   1.784   6.479   2.482
 3948SOL    HW215639   1.681   6.573   2.399
 3949SOL     OW15640   1.641   6.694   2.294
 3949SOL    HW115641   1.727   6.696   2.242
 3949SOL    HW215642   1.655   6.741   2.382
 3950SOL     OW15643   0.113   6.323   3.459
 3950SOL    HW115644   0.201   6.310   3.504
 3950SOL    HW215645   0.100   6.420   3.437
 3951SOL     OW15646   0.613   6.951   2.588
 3951SOL    HW115647   0.564   6.864   2.597
 3951SOL    HW215648   0.590   6.994   2.501
 3952SOL     OW15649   1.293   6.814   3.285
 3952SOL    HW115650   1.330   6.741   3.227
 3952SOL    HW215651   1.345   6.819   3.370
 3953SOL     OW15652   0.809   5.590   2.364
 3953SOL    HW115653   0.849   5.681   2.355
 3953SOL    HW215654   0.709   5.598   2.370
 3954SOL     OW15655   0.197   6.562   3.126
 3954SOL    HW115656   0.286   6.517   3.112
 3954SOL    HW215657   0.124   6.497   3.107
 3955SOL     OW15658   1.525   6.585   2.052
 3955SOL    HW115659   1.462   6.509   2.065
 3955SOL    HW215660   1.573   6.603   2.138
 3956SOL     OW15661   1.187   7.378   3.478
 3956SOL    HW115662   1.211   7.438   3.402
 3956SOL    HW215663   1.194   7.283   3.448
 3957SOL     OW15664   0.317   5.837   3.663
 3957SOL    HW115665   0.388   5.908   3.669
 3957SOL    HW215666   0.229   5.876   3.691
 3958SOL     OW15667   1.466   7.003   2.815
 3958SOL    HW115668   1.407   7.009   2.895
 3958SOL    HW215669   1.451   6.915   2.769
 3959SOL     OW15670   1.667   7.300   2.434
 3959SOL    HW115671   1.626   7.277   2.346
 3959SOL    HW215672   1.649   7.226   2.499
 3960SOL     OW15673   0.598   6.315   2.132
 3960SOL    HW115674   0.622   6.384   2.064
 3960SOL    HW215675   0.520   6.348   2.186
 3961SOL     OW15676   1.281   5.931   2.806
 3961SOL    HW115677   1.195   5.881   2.793
 3961SOL    HW215678   1.343   5.877   2.862
 3962SOL     OW15679   1.576   7.248   2.169
 3962SOL    HW115680   1.665   7.294   2.172
 3962SOL    HW215681   1.555   7.224   2.074
 3963SOL     OW15682   0.807   6.191   3.327
 3963SOL    HW115683   0.760   6.188   3.416
 3963SOL    HW215684   0.756   6.136   3.261
 3964SOL     OW15685   1.394   6.055   3.536
 3964SOL    HW115686   1.374   6.098   3.624
 3964SOL    HW215687   1.472   5.993   3.545
 3965SOL     OW15688   0.973   6.476   3.434
 3965SOL    HW115689   1.019   6.392   3.405
 3965SOL    HW215690   0.917   6.510   3.359
 3966SOL     OW15691   0.991   5.996   3.104
 3966SOL    HW115692   0.914   6.030   3.158
 3966SOL    HW215693   0.957   5.945   3.025
 3967SOL     OW15694   1.041   6.287   2.291
 3967SOL    HW115695   1.067   6.283   2.387
 3967SOL    HW215696   0.956   6.236   2.277
 3968SOL     OW15697   0.076   6.397   2.651
 3968SOL    HW115698   0.175   6.385   2.660
 3968SOL    HW215699   0.052   6.492   2.672
 3969SOL     OW15700   0.130   7.407   3.433
 3969SOL    HW115701   0.120   7.392   3.532
 3969SOL    HW215702   0.044   7.443   3.397
 3970SOL     OW15703   0.865   5.934   2.057
 3970SOL    HW115704   0.924   5.997   2.008
 3970SOL    HW215705   0.884   5.840   2.028
 3971SOL     OW15706   1.719   6.171   3.693
 3971SOL    HW115707   1.693   6.260   3.657
 3971SOL    HW215708   1.717   6.103   3.620
 3972SOL     OW15709   1.362   6.730   2.407
 3972SOL    HW115710   1.445   6.701   2.359
 3972SOL    HW215711   1.313   6.797   2.351
 3973SOL     OW15712   0.550   5.782   2.747
 3973SOL    HW115713   0.545   5.777   2.847
 3973SOL    HW215714   0.552   5.878   2.718
 3974SOL     OW15715   0.351   7.387   2.715
 3974SOL    HW115716   0.401   7.301   2.721
 3974SOL    HW215717   0.416   7.464   2.712
 3975SOL     OW15718   1.795   6.652   2.735
 3975SOL    HW115719   1.733   6.637   2.659
 3975SOL    HW215720   1.743   6.663   2.820
 3976SOL     OW15721   1.227   7.136   3.368
 3976SOL    HW115722   1.233   7.059   3.432
 3976SOL    HW215723   1.175   7.110   3.288
 3977SOL     OW15724   0.321   6.529   2.104
 3977SOL    HW115725   0.403   6.568   2.062
 3977SOL    HW215726   0.294   6.447   2.055
 3978SOL     OW15727   1.458   6.321   2.590
 3978SOL    HW115728   1.453   6.256   2.665
 3978SOL    HW215729   1.538   6.380   2.603
 3979SOL     OW15730   0.461   6.852   3.589
 3979SOL    HW115731   0.411   6.853   3.503
 3979SOL    HW215732   0.398   6.834   3.665
 3980SOL     OW15733   0.202   5.871   3.360
 3980SOL    HW115734   0.122   5.931   3.347
 3980SOL    HW215735   0.192   5.822   3.446
 3981SOL     OW15736   1.632   6.963   1.943
 3981SOL    HW115737   1.600   7.057   1.933
 3981SOL    HW215738   1.556   6.900   1.931
 3982SOL     OW15739   0.464   7.329   2.185
 3982SOL    HW115740   0.497   7.368   2.271
 3982SOL    HW215741   0.540   7.322   2.120
 3983SOL     OW15742   1.400   5.693   2.288
 3983SOL    HW115743   1.376   5.656   2.198
 3983SOL    HW215744   1.499   5.709   2.292
 3984SOL     OW15745   0.249   7.371   3.103
 3984SOL    HW115746   0.306   7.306   3.153
 3984SOL    HW215747   0.233   7.338   3.010
 3985SOL     OW15748   0.940   7.284   2.766
 3985SOL    HW115749   1.020   7.227   2.787
 3985SOL    HW215750   0.891   7.244   2.689
 3986SOL     OW15751   0.382   6.286   2.342
 3986SOL    HW115752   0.427   6.196   2.339
 3986SOL    HW215753   0.288   6.275   2.375
 3987SOL     OW15754   1.547   5.808   3.591
 3987SOL    HW115755   1.542   5.845   3.683
 3987SOL    HW215756   1.475   5.739   3.579
 3988SOL     OW15757   0.614   5.708   1.979
 3988SOL    HW115758   0.712   5.686   1.986
 3988SOL    HW215759   0.583   5.691   1.886
 3989SOL     OW15760   0.781   5.850   3.611
 3989SOL    HW115761   0.848   5.789   3.654
 3989SOL    HW215762   0.708   5.869   3.676
 3990SOL     OW15763   0.888   7.100   3.057
 3990SOL    HW115764   0.865   7.075   2.963
 3990SOL    HW215765   0.949   7.031   3.096
 3991SOL     OW15766   1.351   6.176   3.295
 3991SOL    HW115767   1.379   6.133   3.380
 3991SOL    HW215768   1.376   6.272   3.296
 3992SOL     OW15769   0.803   6.988   2.786
 3992SOL    HW115770   0.893   7.002   2.744
 3992SOL    HW215771   0.732   6.990   2.715
 3993SOL     OW15772   0.922   6.089   2.761
 3993SOL    HW115773   0.897   6.080   2.665
 3993SOL    HW215774   0.970   6.007   2.792
 3994SOL     OW15775   0.539   5.650   2.374
 3994SOL    HW115776   0.458   5.651   2.432
 3994SOL    HW215777   0.542   5.733   2.319
 3995SOL     OW15778   1.434   6.774   1.903
 3995SOL    HW115779   1.466   6.698   1.960
 3995SOL    HW215780   1.342   6.801   1.933
 3996SOL     OW15781   0.935   5.822   2.342
 3996SOL    HW115782   0.887   5.863   2.264
 3996SOL    HW215783   1.034   5.820   2.323
 3997SOL     OW15784   1.076   6.269   3.326
 3997SOL    HW115785   0.996   6.208   3.329
 3997SOL    HW215786   1.157   6.216   3.302
 3998SOL     OW15787   1.227   7.156   2.655
 3998SOL    HW115788   1.248   7.230   2.590
 3998SOL    HW215789   1.295   7.156   2.728
 3999SOL     OW15790   0.459   6.738   2.603
 3999SOL    HW115791   0.388   6.711   2.668
 3999SOL    HW215792   0.433   6.710   2.510
 4000SOL     OW15793   1.271   7.383   2.453
 4000SOL    HW115794   1.315   7.447   2.389
 4000SOL    HW215795   1.221   7.435   2.523
 4001SOL     OW15796   1.032   6.135   1.878
 4001SOL    HW115797   0.991   6.217   1.839
 4001SOL    HW215798   1.096   6.161   1.951
 4002SOL     OW15799   0.078   6.142   3.248
 4002SOL    HW115800   0.170   6.141   3.207
 4002SOL    HW215801   0.072   6.216   3.315
 4003SOL     OW15802   0.561   5.808   3.009
 4003SOL    HW115803   0.599   5.724   3.046
 4003SOL    HW215804   0.473   5.827   3.053
 4004SOL     OW15805   0.866   6.040   2.504
 4004SOL    HW115806   0.834   6.112   2.442
 4004SOL    HW215807   0.890   5.959   2.451
 4005SOL     OW15808   1.017   5.625   2.615
 4005SOL    HW115809   0.945   5.630   2.546
 4005SOL    HW215810   0.993   5.556   2.684
 4006SOL     OW15811   1.429   6.759   2.729
 4006SOL    HW115812   1.374   6.675   2.722
 4006SOL    HW215813   1.455   6.788   2.637
 4007SOL     OW15814   1.466   6.176   2.854
 4007SOL    HW115815   1.436   6.081   2.861
 4007SOL    HW215816   1.539   6.192   2.920
 4008SOL     OW15817   0.488   6.971   2.036
 4008SOL    HW115818   0.401   6.956   2.083
 4008SOL    HW215819   0.471   6.997   1.941
 4009SOL     OW15820   1.664   6.866   2.519
 4009SOL    HW115821   1.763   6.874   2.533
 4009SOL    HW215822   1.619   6.950   2.550
 4010SOL     OW15823   0.527   5.842   2.190
 4010SOL    HW115824   0.554   5.783   2.115
 4010SOL    HW215825   0.527   5.937   2.159
 4011SOL     OW15826   1.754   6.809   3.450
 4011SOL    HW115827   1.845   6.770   3.437
 4011SOL    HW215828   1.762   6.905   3.474
 4012SOL     OW15829   1.064   6.933   3.202
 4012SOL    HW115830   0.984   6.910   3.257
 4012SOL    HW215831   1.147   6.907   3.251
 4013SOL     OW15832   1.592   7.215   3.487
 4013SOL    HW115833   1.619   7.249   3.397
 4013SOL    HW215834   1.671   7.177   3.533
 4014SOL     OW15835   1.111   6.781   2.962
 4014SOL    HW115836   1.071   6.825   3.043
 4014SOL    HW215837   1.070   6.818   2.879
 4015SOL     OW15838   1.638   6.685   2.941
 4015SOL    HW115839   1.643   6.766   3.000
 4015SOL    HW215840   1.552   6.687   2.890
 4016SOL     OW15841   0.915   5.675   3.264
 4016SOL    HW115842   0.940   5.655   3.169
 4016SOL    HW215843   0.987   5.731   3.306
 4017SOL     OW15844   0.980   6.702   3.581
 4017SOL    HW115845   0.881   6.708   3.591
 4017SOL    HW215846   1.003   6.622   3.525
 4018SOL     OW15847   0.705   6.636   2.230
 4018SOL    HW115848   0.691   6.643   2.329
 4018SOL    HW215849   0.789   6.585   2.212
 4019SOL     OW15850   0.410   6.399   3.113
 4019SOL    HW115851   0.496   6.411   3.163
 4019SOL    HW215852   0.368   6.312   3.140
 4020SOL     OW15853   1.274   5.972   3.124
 4020SOL    HW115854   1.295   6.046   3.188
 4020SOL    HW215855   1.185   5.989   3.081
 4021SOL     OW15856   0.064   7.150   3.193
 4021SOL    HW115857   0.018   7.232   3.159
 4021SOL    HW215858   0.162   7.169   3.202
 4022SOL     OW15859   0.367   6.686   2.363
 4022SOL    HW115860   0.360   6.769   2.307
 4022SOL    HW215861   0.371   6.606   2.303
 4023SOL     OW15862   0.566   6.123   2.727
 4023SOL    HW115863   0.578   6.189   2.653
 4023SOL    HW215864   0.612   6.157   2.810
 4024SOL     OW15865   1.252   6.934   2.250
 4024SOL    HW115866   1.302   7.011   2.290
 4024SOL    HW215867   1.157   6.936   2.282
 4025SOL     OW15868   1.272   7.031   3.004
 4025SOL    HW115869   1.319   7.044   3.091
 4025SOL    HW215870   1.206   6.957   3.013
 4026SOL     OW15871   0.354   7.096   3.191
 4026SOL    HW115872   0.333   7.052   3.104
 4026SOL    HW215873   0.451   7.122   3.194
 4027SOL     OW15874   0.402   6.337   3.460
 4027SOL    HW115875   0.470   6.392   3.413
 4027SOL    HW215876   0.442   6.249   3.487
 4028SOL     OW15877   1.587   6.365   3.532
 4028SOL    HW115878   1.495   6.403   3.527
 4028SOL    HW215879   1.647   6.412   3.467
 4029SOL     OW15880   1.013   5.691   3.632
 4029SOL    HW115881   1.019   5.776   3.580
 4029SOL    HW215882   1.045   5.615   3.575
 4030SOL     OW15883   0.504   5.636   3.602
 4030SOL    HW115884   0.462   5.579   3.532
 4030SOL    HW215885   0.438   5.705   3.634
 4031SOL     OW15886   0.573   6.456   2.891
 4031SOL    HW115887   0.617   6.545   2.882
 4031SOL    HW215888   0.510   6.456   2.968
 4032SOL     OW15889   1.360   6.448   2.907
 4032SOL    HW115890   1.285   6.448   2.841
 4032SOL    HW215891   1.397   6.356   2.916
 4033SOL     OW15892   0.307   5.799   3.093
 4033SOL    HW115893   0.284   5.836   3.183
 4033SOL    HW215894   0.277   5.704   3.087
 4034SOL     OW15895   0.037   6.896   3.144
 4034SOL    HW115896   0.090   6.847   3.212
 4034SOL    HW215897   0.059   6.994   3.149
 4035SOL     OW15898   0.732   6.220   2.926
 4035SOL    HW115899   0.791   6.194   2.850
 4035SOL    HW215900   0.704   6.316   2.915
 4036SOL     OW15901   1.728   6.521   3.716
 4036SOL    HW115902   1.682   6.514   3.627
 4036SOL    HW215903   1.666   6.565   3.782
 4037SOL     OW15904   0.307   5.649   2.480
 4037SOL    HW115905   0.296   5.743   2.513
 4037SOL    HW215906   0.302   5.586   2.557
 4038SOL     OW15907   1.622   5.953   2.236
 4038SOL    HW115908   1.624   5.877   2.300
 4038SOL    HW215909   1.574   6.030   2.276
 4039SOL     OW15910   1.023   6.352   2.828
 4039SOL    HW115911   1.038   6.373   2.924
 4039SOL    HW215912   0.993   6.257   2.819
 4040SOL     OW15913   0.980   7.159   3.562
 4040SOL    HW115914   0.960   7.203   3.474
 4040SOL    HW215915   1.019   7.068   3.546
 4041SOL     OW15916   1.859   7.104   3.467
 4041SOL    HW115917   1.873   7.131   3.372
 4041SOL    HW215918   1.942   7.126   3.520
 4042SOL     OW15919   0.350   6.484   3.666
 4042SOL    HW115920   0.426   6.528   3.714
 4042SOL    HW215921   0.385   6.437   3.584
 4043SOL     OW15922   1.540   5.860   1.987
 4043SOL    HW115923   1.479   5.785   2.010
 4043SOL    HW215924   1.562   5.912   2.070
 4044SOL     OW15925   1.303   6.424   1.904
 4044SOL    HW115926   1.337   6.331   1.919
 4044SOL    HW215927   1.321   6.451   1.809
 4045SOL     OW15928   1.068   6.919   2.711
 4045SOL    HW115929   1.075   6.835   2.656
 4045SOL    HW215930   1.130   6.988   2.675
 4046SOL     OW15931   0.319   6.396   2.811
 4046SOL    HW115932   0.412   6.432   2.816
 4046SOL    HW215933   0.313   6.311   2.863
 4047SOL     OW15934   0.339   6.095   2.868
 4047SOL    HW115935   0.287   6.012   2.851
 4047SOL    HW215936   0.416   6.100   2.804
 4048SOL     OW15937   1.138   5.966   3.540
 4048SOL    HW115938   1.093   6.029   3.604
 4048SOL    HW215939   1.231   5.997   3.523
 4049SOL     OW15940   1.160   5.793   3.339
 4049SOL    HW115941   1.160   5.857   3.416
 4049SOL    HW215942   1.188   5.841   3.256
 4050SOL     OW15943   0.008   6.912   2.062
 4050SOL    HW115944  -0.085   6.933   2.031
 4050SOL    HW215945   0.018   6.813   2.075
 4051SOL     OW15946   0.504   7.154   2.772
 4051SOL    HW115947   0.570   7.228   2.781
 4051SOL    HW215948   0.548   7.075   2.730
 4052SOL     OW15949   1.002   6.382   3.100
 4052SOL    HW115950   1.043   6.350   3.186
 4052SOL    HW215951   0.906   6.355   3.097
 4053SOL     OW15952   0.040   6.130   2.976
 4053SOL    HW115953   0.125   6.097   2.935
 4053SOL    HW215954   0.053   6.145   3.074
 4054SOL     OW15955   0.189   6.106   3.584
 4054SOL    HW115956   0.248   6.066   3.514
 4054SOL    HW215957   0.131   6.177   3.543
 4055SOL     OW15958   1.369   6.536   3.522
 4055SOL    HW115959   1.408   6.625   3.542
 4055SOL    HW215960   1.379   6.516   3.425
 4056SOL     OW15961   0.815   6.158   2.187
 4056SOL    HW115962   0.822   6.069   2.141
 4056SOL    HW215963   0.721   6.192   2.179
 4057SOL     OW15964   1.657   6.190   3.068
 4057SOL    HW115965   1.619   6.121   3.130
 4057SOL    HW215966   1.739   6.154   3.024
 4058SOL     OW15967   0.252   7.150   3.606
 4058SOL    HW115968   0.222   7.207   3.682
 4058SOL    HW215969   0.245   7.053   3.632
 4059SOL     OW15970   0.671   6.050   3.131
 4059SOL    HW115971   0.637   5.961   3.101
 4059SOL    HW215972   0.697   6.104   3.051
 4060SOL     OW15973   0.930   7.264   3.327
 4060SOL    HW115974   0.906   7.246   3.232
 4060SOL    HW215975   0.960   7.358   3.337
 4061SOL     OW15976   0.159   6.723   3.328
 4061SOL    HW115977   0.181   6.662   3.404
 4061SOL    HW215978   0.169   6.674   3.242
 4062SOL     OW15979   1.347   6.645   3.096
 4062SOL    HW115980   1.371   6.582   3.022
 4062SOL    HW215981   1.257   6.685   3.078
 4063SOL     OW15982   1.759   7.333   3.016
 4063SOL    HW115983   1.820   7.363   2.943
 4063SOL    HW215984   1.721   7.244   2.994
 4064SOL     OW15985   1.252   7.317   2.990
 4064SOL    HW115986   1.336   7.322   2.936
 4064SOL    HW215987   1.229   7.221   3.008
 4065SOL     OW15988   0.083   6.844   2.884
 4065SOL    HW115989   0.078   6.843   2.984
 4065SOL    HW215990   0.000   6.803   2.846
 4066SOL     OW15991   0.688   7.248   3.578
 4066SOL    HW115992   0.632   7.329   3.587
 4066SOL    HW215993   0.740   7.252   3.492
 4067SOL     OW15994   1.726   5.721   2.385
 4067SOL    HW115995   1.799   5.704   2.318
 4067SOL    HW215996   1.695   5.634   2.423
 4068SOL     OW15997   1.388   7.159   2.339
 4068SOL    HW115998   1.455   7.171   2.265
 4068SOL    HW215999   1.348   7.248   2.362
 4069SOL     OW16000   0.130   7.380   3.713
 4069SOL    HW116001   0.089   7.306   3.766
 4069SOL    HW216002   0.194   7.431   3.771
 4070SOL     OW16003   1.280   6.513   2.534
 4070SOL    HW116004   1.340   6.432   2.536
 4070SOL    HW216005   1.320   6.582   2.474
 4071SOL     OW16006   0.830   6.859   3.284
 4071SOL    HW116007   0.825   6.892   3.379
 4071SOL    HW216008   0.744   6.878   3.238
 4072SOL     OW16009   1.650   7.306   3.256
 4072SOL    HW116010   1.703   7.316   3.172
 4072SOL    HW216011   1.623   7.396   3.290
 4073SOL     OW16012   1.841   5.761   2.825
 4073SOL    HW116013   1.880   5.676   2.789
 4073SOL    HW216014   1.743   5.763   2.806
 4074SOL     OW16015   0.263   5.912   2.582
 4074SOL    HW116016   0.184   5.963   2.548
 4074SOL    HW216017   0.254   5.897   2.680
 4075SOL     OW16018   0.822   6.588   3.234
 4075SOL    HW116019   0.862   6.587   3.142
 4075SOL    HW216020   0.832   6.680   3.274
 4076SOL     OW16021   0.916   6.496   2.153
 4076SOL    HW116022   0.979   6.534   2.085
 4076SOL    HW216023   0.956   6.413   2.192
 4077SOL     OW16024   1.504   7.193   1.906
 4077SOL    HW116025   1.412   7.230   1.913
 4077SOL    HW216026   1.542   7.213   1.816
 4078SOL     OW16027   0.372   6.874   3.352
 4078SOL    HW116028   0.359   6.967   3.318
 4078SOL    HW216029   0.288   6.822   3.339
 4079SOL     OW16030   1.614   6.878   3.151
 4079SOL    HW116031   1.674   6.881   3.231
 4079SOL    HW216032   1.539   6.942   3.164
 4080SOL     OW16033   1.039   6.684   2.558
 4080SOL    HW116034   0.969   6.637   2.612
 4080SOL    HW216035   1.098   6.616   2.515
 4081SOL     OW16036   1.014   5.822   2.833
 4081SOL    HW116037   1.006   5.786   2.740
 4081SOL    HW216038   1.012   5.746   2.898
 4082SOL     OW16039   1.709   5.971   3.243
 4082SOL    HW116040   1.782   6.040   3.247
 4082SOL    HW216041   1.737   5.896   3.184
 4083SOL     OW16042   0.255   6.934   2.152
 4083SOL    HW116043   0.159   6.935   2.125
 4083SOL    HW216044   0.267   6.987   2.236
 4084SOL     OW16045   0.105   6.599   3.588
 4084SOL    HW116046   0.028   6.566   3.642
 4084SOL    HW216047   0.190   6.569   3.630
 4085SOL     OW16048   0.672   5.789   3.351
 4085SOL    HW116049   0.762   5.773   3.311
 4085SOL    HW216050   0.680   5.794   3.450
 4086SOL     OW16051   1.440   6.442   3.260
 4086SOL    HW116052   1.383   6.494   3.197
 4086SOL    HW216053   1.536   6.454   3.236
 4087SOL     OW16054   0.613   6.428   3.293
 4087SOL    HW116055   0.669   6.509   3.276
 4087SOL    HW216056   0.672   6.348   3.296
 4088SOL     OW16057   1.493   7.353   2.821
 4088SOL    HW116058   1.526   7.417   2.752
 4088SOL    HW216059   1.559   7.347   2.896
 4089SOL     OW16060   0.716   6.151   3.570
 4089SOL    HW116061   0.735   6.216   3.644
 4089SOL    HW216062   0.776   6.071   3.579
 4090SOL     OW16063   1.450   6.806   3.495
 4090SOL    HW116064   1.441   6.796   3.594
 4090SOL    HW216065   1.546   6.799   3.469
 4091SOL     OW16066   0.390   7.327   3.422
 4091SOL    HW116067   0.299   7.368   3.420
 4091SOL    HW216068   0.383   7.233   3.454
 4092SOL     OW16069   1.674   6.469   3.116
 4092SOL    HW116070   1.647   6.380   3.079
 4092SOL    HW216071   1.675   6.537   3.043
 4093SOL     OW16072   1.225   5.911   2.311
 4093SOL    HW116073   1.290   5.837   2.300
 4093SOL    HW216074   1.245   5.961   2.395
 4094SOL     OW16075   0.594   6.331   2.514
 4094SOL    HW116076   0.644   6.416   2.495
 4094SOL    HW216077   0.506   6.333   2.466
 4095SOL     OW16078   1.777   5.928   3.504
 4095SOL    HW116079   1.760   5.959   3.410
 4095SOL    HW216080   1.693   5.891   3.542
 4096SOL     OW16081   1.730   6.520   3.379
 4096SOL    HW116082   1.768   6.611   3.394
 4096SOL    HW216083   1.722   6.503   3.280
 4097SOL     OW16084   0.661   7.376   2.815
 4097SOL    HW116085   0.615   7.464   2.802
 4097SOL    HW216086   0.760   7.388   2.808
 4098SOL     OW16087   0.859   6.542   2.723
 4098SOL    HW116088   0.913   6.473   2.771
 4098SOL    HW216089   0.827   6.611   2.789
 4099SOL     OW16090   1.083   6.570   1.949
 4099SOL    HW116091   1.060   6.623   1.867
 4099SOL    HW216092   1.164   6.514   1.930
 4100SOL     OW16093   1.861   7.155   2.713
 4100SOL    HW116094   1.790   7.143   2.643
 4100SOL    HW216095   1.862   7.076   2.773
 4101SOL     OW16096   0.221   6.900   3.706
 4101SOL    HW116097   0.156   6.827   3.685
 4101SOL    HW216098   0.225   6.914   3.804
 4102SOL     OW16099   0.672   6.977   3.486
 4102SOL    HW116100   0.594   6.927   3.524
 4102SOL    HW216101   0.669   7.072   3.517
 4103SOL     OW16102   1.824   5.778   3.089
 4103SOL    HW116103   1.820   5.688   3.133
 4103SOL    HW216104   1.827   5.767   2.990
 4104SOL     OW16105   0.428   6.010   2.382
 4104SOL    HW116106   0.458   5.938   2.320
 4104SOL    HW216107   0.389   5.970   2.465
 4105SOL     OW16108   1.705   7.073   2.966
 4105SOL    HW116109   1.612   7.048   2.939
 4105SOL    HW216110   1.731   7.023   3.048
 4106SOL     OW16111   0.317   6.133   3.142
 4106SOL    HW116112   0.355   6.074   3.214
 4106SOL    HW216113   0.357   6.107   3.054
 4107SOL     OW16114   0.812   7.172   2.549
 4107SOL    HW116115   0.844   7.182   2.455
 4107SOL    HW216116   0.733   7.110   2.551
 4108SOL     OW16117   1.424   5.800   2.974
 4108SOL    HW116118   1.476   5.735   3.029
 4108SOL    HW216119   1.375   5.863   3.035
 4109SOL     OW16120   1.001   5.620   3.016
 4109SOL    HW116121   0.938   5.548   2.985
 4109SOL    HW216122   1.094   5.584   3.016
 4110SOL     OW16123   0.770   6.916   2.163
 4110SOL    HW116124   0.724   6.829   2.180
 4110SOL    HW216125   0.861   6.913   2.204
 4111SOL     OW16126   0.618   7.153   3.146
 4111SOL    HW116127   0.613   7.235   3.203
 4111SOL    HW216128   0.707   7.150   3.101
 4112SOL     OW16129   1.352   5.638   2.030
 4112SOL    HW116130   1.387   5.597   1.946
 4112SOL    HW216131   1.262   5.600   2.050
 4113SOL     OW16132   1.300   6.039   2.553
 4113SOL    HW116133   1.241   6.119   2.557
 4113SOL    HW216134   1.315   6.004   2.646
 4114SOL     OW16135   1.593   5.807   2.744
 4114SOL    HW116136   1.509   5.806   2.798
 4114SOL    HW216137   1.595   5.890   2.688
 4115SOL     OW16138   0.039   6.663   2.162
 4115SOL    HW116139   0.138   6.652   2.153
 4115SOL    HW216140  -0.001   6.577   2.194
 4116SOL     OW16141   0.230   6.214   3.837
 4116SOL    HW116142   0.137   6.212   3.874
 4116SOL    HW216143   0.231   6.175   3.745
 4117SOL     OW16144   0.225   5.861   4.720
 4117SOL    HW116145   0.260   5.844   4.812
 4117SOL    HW216146   0.137   5.816   4.708
 4118SOL     OW16147   0.019   5.954   4.371
 4118SOL    HW116148  -0.063   5.997   4.410
 4118SOL    HW216149  -0.009   5.881   4.308
 4119SOL     OW16150   0.569   6.861   4.889
 4119SOL    HW116151   0.476   6.854   4.852
 4119SOL    HW216152   0.580   6.950   4.933
 4120SOL     OW16153   1.555   7.097   4.427
 4120SOL    HW116154   1.498   7.081   4.508
 4120SOL    HW216155   1.496   7.107   4.347
 4121SOL     OW16156   1.135   6.289   4.441
 4121SOL    HW116157   1.192   6.367   4.416
 4121SOL    HW216158   1.075   6.315   4.517
 4122SOL     OW16159   1.755   6.193   3.955
 4122SOL    HW116160   1.743   6.180   3.856
 4122SOL    HW216161   1.725   6.112   4.004
 4123SOL     OW16162   0.768   6.730   4.747
 4123SOL    HW116163   0.690   6.747   4.807
 4123SOL    HW216164   0.802   6.817   4.711
 4124SOL     OW16165   0.850   6.384   5.547
 4124SOL    HW116166   0.846   6.460   5.612
 4124SOL    HW216167   0.872   6.420   5.456
 4125SOL     OW16168   0.685   6.598   4.389
 4125SOL    HW116169   0.754   6.582   4.459
 4125SOL    HW216170   0.612   6.655   4.427
 4126SOL     OW16171   0.686   6.747   5.527
 4126SOL    HW116172   0.746   6.826   5.541
 4126SOL    HW216173   0.600   6.778   5.486
 4127SOL     OW16174   0.335   7.021   4.785
 4127SOL    HW116175   0.257   6.990   4.732
 4127SOL    HW216176   0.393   7.079   4.728
 4128SOL     OW16177   1.460   7.091   5.063
 4128SOL    HW116178   1.484   7.185   5.089
 4128SOL    HW216179   1.444   7.037   5.145
 4129SOL     OW16180   0.438   5.978   5.223
 4129SOL    HW116181   0.520   5.922   5.232
 4129SOL    HW216182   0.357   5.920   5.227
 4130SOL     OW16183   1.603   6.033   4.461
 4130SOL    HW116184   1.529   6.079   4.411
 4130SOL    HW216185   1.654   6.101   4.514
 4131SOL     OW16186   0.231   7.299   4.207
 4131SOL    HW116187   0.265   7.376   4.261
 4131SOL    HW216188   0.275   7.299   4.117
 4132SOL     OW16189   1.127   6.927   5.414
 4132SOL    HW116190   1.174   6.927   5.502
 4132SOL    HW216191   1.079   6.840   5.403
 4133SOL     OW16192   0.230   7.020   4.262
 4133SOL    HW116193   0.204   7.116   4.262
 4133SOL    HW216194   0.159   6.966   4.307
 4134SOL     OW16195   0.240   6.677   4.610
 4134SOL    HW116196   0.254   6.593   4.662
 4134SOL    HW216197   0.185   6.741   4.665
 4135SOL     OW16198   0.620   7.372   5.163
 4135SOL    HW116199   0.528   7.355   5.198
 4135SOL    HW216200   0.648   7.464   5.189
 4136SOL     OW16201   0.606   6.550   3.847
 4136SOL    HW116202   0.613   6.634   3.793
 4136SOL    HW216203   0.652   6.563   3.935
 4137SOL     OW16204   0.122   6.229   4.287
 4137SOL    HW116205   0.077   6.141   4.304
 4137SOL    HW216206   0.121   6.283   4.371
 4138SOL     OW16207   1.842   7.353   4.083
 4138SOL    HW116208   1.896   7.324   4.163
 4138SOL    HW216209   1.872   7.443   4.054
 4139SOL     OW16210   0.027   7.182   3.841
 4139SOL    HW116211   0.008   7.086   3.862
 4139SOL    HW216212  -0.006   7.240   3.916
 4140SOL     OW16213   1.689   6.508   4.336
 4140SOL    HW116214   1.784   6.479   4.344
 4140SOL    HW216215   1.681   6.573   4.261
 4141SOL     OW16216   1.641   6.694   4.156
 4141SOL    HW116217   1.727   6.696   4.104
 4141SOL    HW216218   1.655   6.741   4.244
 4142SOL     OW16219   0.113   6.323   5.321
 4142SOL    HW116220   0.201   6.310   5.366
 4142SOL    HW216221   0.100   6.420   5.299
 4143SOL     OW16222   0.613   6.951   4.450
 4143SOL    HW116223   0.564   6.864   4.459
 4143SOL    HW216224   0.590   6.994   4.363
 4144SOL     OW16225   1.293   6.814   5.147
 4144SOL    HW116226   1.330   6.741   5.089
 4144SOL    HW216227   1.345   6.819   5.232
 4145SOL     OW16228   0.809   5.590   4.226
 4145SOL    HW116229   0.849   5.681   4.217
 4145SOL    HW216230   0.709   5.598   4.232
 4146SOL     OW16231   0.197   6.562   4.988
 4146SOL    HW116232   0.286   6.517   4.974
 4146SOL    HW216233   0.124   6.497   4.969
 4147SOL     OW16234   1.525   6.585   3.914
 4147SOL    HW116235   1.462   6.509   3.927
 4147SOL    HW216236   1.573   6.603   4.000
 4148SOL     OW16237   0.317   5.837   5.525
 4148SOL    HW116238   0.388   5.908   5.531
 4148SOL    HW216239   0.229   5.876   5.553
 4149SOL     OW16240   1.466   7.003   4.677
 4149SOL    HW116241   1.407   7.009   4.757
 4149SOL    HW216242   1.451   6.915   4.631
 4150SOL     OW16243   1.667   7.300   4.296
 4150SOL    HW116244   1.626   7.277   4.208
 4150SOL    HW216245   1.649   7.226   4.361
 4151SOL     OW16246   1.281   5.931   4.668
 4151SOL    HW116247   1.195   5.881   4.655
 4151SOL    HW216248   1.343   5.877   4.724
 4152SOL     OW16249   1.576   7.248   4.031
 4152SOL    HW116250   1.665   7.294   4.034
 4152SOL    HW216251   1.555   7.224   3.936
 4153SOL     OW16252   0.807   6.191   5.189
 4153SOL    HW116253   0.760   6.188   5.278
 4153SOL    HW216254   0.756   6.136   5.123
 4154SOL     OW16255   1.394   6.055   5.398
 4154SOL    HW116256   1.374   6.098   5.486
 4154SOL    HW216257   1.472   5.993   5.407
 4155SOL     OW16258   0.973   6.476   5.296
 4155SOL    HW116259   1.019   6.392   5.267
 4155SOL    HW216260   0.917   6.510   5.221
 4156SOL     OW16261   0.991   5.996   4.966
 4156SOL    HW116262   0.914   6.030   5.020
 4156SOL    HW216263   0.957   5.945   4.887
 4157SOL     OW16264   0.076   6.397   4.513
 4157SOL    HW116265   0.175   6.385   4.522
 4157SOL    HW216266   0.052   6.492   4.534
 4158SOL     OW16267   0.130   7.407   5.295
 4158SOL    HW116268   0.120   7.392   5.394
 4158SOL    HW216269   0.044   7.443   5.259
 4159SOL     OW16270   0.865   5.934   3.919
 4159SOL    HW116271   0.924   5.997   3.870
 4159SOL    HW216272   0.884   5.840   3.890
 4160SOL     OW16273   1.719   6.171   5.555
 4160SOL    HW116274   1.693   6.260   5.519
 4160SOL    HW216275   1.717   6.103   5.482
 4161SOL     OW16276   1.362   6.730   4.269
 4161SOL    HW116277   1.445   6.701   4.221
 4161SOL    HW216278   1.313   6.797   4.213
 4162SOL     OW16279   0.550   5.782   4.609
 4162SOL    HW116280   0.545   5.777   4.709
 4162SOL    HW216281   0.552   5.878   4.580
 4163SOL     OW16282   1.008   7.042   4.201
 4163SOL    HW116283   0.962   7.114   4.149
 4163SOL    HW216284   1.004   7.062   4.299
 4164SOL     OW16285   0.351   7.387   4.577
 4164SOL    HW116286   0.401   7.301   4.583
 4164SOL    HW216287   0.416   7.464   4.574
 4165SOL     OW16288   1.795   6.652   4.597
 4165SOL    HW116289   1.733   6.637   4.521
 4165SOL    HW216290   1.743   6.663   4.682
 4166SOL     OW16291   1.227   7.136   5.230
 4166SOL    HW116292   1.233   7.059   5.294
 4166SOL    HW216293   1.175   7.110   5.150
 4167SOL     OW16294   0.321   6.529   3.966
 4167SOL    HW116295   0.403   6.568   3.924
 4167SOL    HW216296   0.294   6.447   3.917
 4168SOL     OW16297   1.458   6.321   4.452
 4168SOL    HW116298   1.453   6.256   4.527
 4168SOL    HW216299   1.538   6.380   4.465
 4169SOL     OW16300   0.461   6.852   5.451
 4169SOL    HW116301   0.411   6.853   5.365
 4169SOL    HW216302   0.398   6.834   5.527
 4170SOL     OW16303   1.111   7.362   3.961
 4170SOL    HW116304   1.051   7.300   4.011
 4170SOL    HW216305   1.142   7.318   3.876
 4171SOL     OW16306   0.202   5.871   5.222
 4171SOL    HW116307   0.122   5.931   5.209
 4171SOL    HW216308   0.192   5.822   5.308
 4172SOL     OW16309   1.632   6.963   3.805
 4172SOL    HW116310   1.600   7.057   3.795
 4172SOL    HW216311   1.556   6.900   3.793
 4173SOL     OW16312   0.464   7.329   4.047
 4173SOL    HW116313   0.497   7.368   4.133
 4173SOL    HW216314   0.540   7.322   3.982
 4174SOL     OW16315   1.400   5.693   4.150
 4174SOL    HW116316   1.376   5.656   4.060
 4174SOL    HW216317   1.499   5.709   4.154
 4175SOL     OW16318   0.249   7.371   4.965
 4175SOL    HW116319   0.306   7.306   5.015
 4175SOL    HW216320   0.233   7.338   4.872
 4176SOL     OW16321   0.940   7.284   4.628
 4176SOL    HW116322   1.020   7.227   4.649
 4176SOL    HW216323   0.891   7.244   4.551
 4177SOL     OW16324   0.382   6.286   4.204
 4177SOL    HW116325   0.427   6.196   4.201
 4177SOL    HW216326   0.288   6.275   4.237
 4178SOL     OW16327   1.547   5.808   5.453
 4178SOL    HW116328   1.542   5.845   5.545
 4178SOL    HW216329   1.475   5.739   5.441
 4179SOL     OW16330   0.614   5.708   3.841
 4179SOL    HW116331   0.712   5.686   3.848
 4179SOL    HW216332   0.583   5.691   3.748
 4180SOL     OW16333   0.781   5.850   5.473
 4180SOL    HW116334   0.848   5.789   5.516
 4180SOL    HW216335   0.708   5.869   5.538
 4181SOL     OW16336   0.888   7.100   4.919
 4181SOL    HW116337   0.865   7.075   4.825
 4181SOL    HW216338   0.949   7.031   4.958
 4182SOL     OW16339   1.351   6.176   5.157
 4182SOL    HW116340   1.379   6.133   5.242
 4182SOL    HW216341   1.376   6.272   5.158
 4183SOL     OW16342   0.803   6.988   4.648
 4183SOL    HW116343   0.893   7.002   4.606
 4183SOL    HW216344   0.732   6.990   4.577
 4184SOL     OW16345   0.922   6.089   4.623
 4184SOL    HW116346   0.897   6.080   4.527
 4184SOL    HW216347   0.970   6.007   4.654
 4185SOL     OW16348   0.539   5.650   4.236
 4185SOL    HW116349   0.458   5.651   4.294
 4185SOL    HW216350   0.542   5.733   4.181
 4186SOL     OW16351   1.434   6.774   3.765
 4186SOL    HW116352   1.466   6.698   3.822
 4186SOL    HW216353   1.342   6.801   3.795
 4187SOL     OW16354   0.297   5.621   3.895
 4187SOL    HW116355   0.346   5.705   3.874
 4187SOL    HW216356   0.359   5.556   3.940
 4188SOL     OW16357   0.935   5.822   4.204
 4188SOL    HW116358   0.887   5.863   4.126
 4188SOL    HW216359   1.034   5.820   4.185
 4189SOL     OW16360   1.076   6.269   5.188
 4189SOL    HW116361   0.996   6.208   5.191
 4189SOL    HW216362   1.157   6.216   5.164
 4190SOL     OW16363   1.227   7.156   4.517
 4190SOL    HW116364   1.248   7.230   4.452
 4190SOL    HW216365   1.295   7.156   4.590
 4191SOL     OW16366   0.459   6.738   4.465
 4191SOL    HW116367   0.388   6.711   4.530
 4191SOL    HW216368   0.433   6.710   4.372
 4192SOL     OW16369   1.271   7.383   4.315
 4192SOL    HW116370   1.315   7.447   4.251
 4192SOL    HW216371   1.221   7.435   4.385
 4193SOL     OW16372   1.032   6.135   3.740
 4193SOL    HW116373   0.991   6.217   3.701
 4193SOL    HW216374   1.096   6.161   3.813
 4194SOL     OW16375   0.078   6.142   5.110
 4194SOL    HW116376   0.170   6.141   5.069
 4194SOL    HW216377   0.072   6.216   5.177
 4195SOL     OW16378   0.561   5.808   4.871
 4195SOL    HW116379   0.599   5.724   4.908
 4195SOL    HW216380   0.473   5.827   4.915
 4196SOL     OW16381   1.017   5.625   4.477
 4196SOL    HW116382   0.945   5.630   4.408
 4196SOL    HW216383   0.993   5.556   4.546
 4197SOL     OW16384   1.429   6.759   4.591
 4197SOL    HW116385   1.374   6.675   4.584
 4197SOL    HW216386   1.455   6.788   4.499
 4198SOL     OW16387   1.466   6.176   4.716
 4198SOL    HW116388   1.436   6.081   4.723
 4198SOL    HW216389   1.539   6.192   4.782
 4199SOL     OW16390   1.857   6.419   4.101
 4199SOL    HW116391   1.899   6.355   4.165
 4199SOL    HW216392   1.819   6.368   4.023
 4200SOL     OW16393   0.488   6.971   3.898
 4200SOL    HW116394   0.401   6.956   3.945
 4200SOL    HW216395   0.471   6.997   3.803
 4201SOL     OW16396   1.664   6.866   4.381
 4201SOL    HW116397   1.763   6.874   4.395
 4201SOL    HW216398   1.619   6.950   4.412
 4202SOL     OW16399   1.390   6.161   3.802
 4202SOL    HW116400   1.336   6.140   3.883
 4202SOL    HW216401   1.481   6.120   3.811
 4203SOL     OW16402   1.754   6.809   5.312
 4203SOL    HW116403   1.845   6.770   5.299
 4203SOL    HW216404   1.762   6.905   5.336
 4204SOL     OW16405   1.064   6.933   5.064
 4204SOL    HW116406   0.984   6.910   5.119
 4204SOL    HW216407   1.147   6.907   5.113
 4205SOL     OW16408   1.592   7.215   5.349
 4205SOL    HW116409   1.619   7.249   5.259
 4205SOL    HW216410   1.671   7.177   5.395
 4206SOL     OW16411   1.111   6.781   4.824
 4206SOL    HW116412   1.071   6.825   4.905
 4206SOL    HW216413   1.070   6.818   4.741
 4207SOL     OW16414   1.638   6.685   4.803
 4207SOL    HW116415   1.643   6.766   4.862
 4207SOL    HW216416   1.552   6.687   4.752
 4208SOL     OW16417   0.980   6.702   5.443
 4208SOL    HW116418   0.881   6.708   5.453
 4208SOL    HW216419   1.003   6.622   5.387
 4209SOL     OW16420   0.705   6.636   4.092
 4209SOL    HW116421   0.691   6.643   4.191
 4209SOL    HW216422   0.789   6.585   4.074
 4210SOL     OW16423   0.410   6.399   4.975
 4210SOL    HW116424   0.496   6.411   5.025
 4210SOL    HW216425   0.368   6.312   5.002
 4211SOL     OW16426   1.274   5.972   4.986
 4211SOL    HW116427   1.295   6.046   5.050
 4211SOL    HW216428   1.185   5.989   4.943
 4212SOL     OW16429   0.064   7.150   5.055
 4212SOL    HW116430   0.018   7.232   5.021
 4212SOL    HW216431   0.162   7.169   5.064
 4213SOL     OW16432   0.367   6.686   4.225
 4213SOL    HW116433   0.360   6.769   4.169
 4213SOL    HW216434   0.371   6.606   4.165
 4214SOL     OW16435   0.566   6.123   4.589
 4214SOL    HW116436   0.578   6.189   4.515
 4214SOL    HW216437   0.612   6.157   4.672
 4215SOL     OW16438   1.252   6.934   4.112
 4215SOL    HW116439   1.302   7.011   4.152
 4215SOL    HW216440   1.157   6.936   4.144
 4216SOL     OW16441   1.272   7.031   4.866
 4216SOL    HW116442   1.319   7.044   4.953
 4216SOL    HW216443   1.206   6.957   4.875
 4217SOL     OW16444   1.582   6.225   4.196
 4217SOL    HW116445   1.551   6.286   4.269
 4217SOL    HW216446   1.632   6.277   4.127
 4218SOL     OW16447   0.354   7.096   5.053
 4218SOL    HW116448   0.333   7.052   4.966
 4218SOL    HW216449   0.451   7.122   5.056
 4219SOL     OW16450   0.402   6.337   5.322
 4219SOL    HW116451   0.470   6.392   5.275
 4219SOL    HW216452   0.442   6.249   5.349
 4220SOL     OW16453   1.587   6.365   5.394
 4220SOL    HW116454   1.495   6.403   5.389
 4220SOL    HW216455   1.647   6.412   5.329
 4221SOL     OW16456   1.013   5.691   5.494
 4221SOL    HW116457   1.019   5.776   5.442
 4221SOL    HW216458   1.045   5.615   5.437
 4222SOL     OW16459   0.504   5.636   5.464
 4222SOL    HW116460   0.462   5.579   5.394
 4222SOL    HW216461   0.438   5.705   5.496
 4223SOL     OW16462   0.573   6.456   4.753
 4223SOL    HW116463   0.617   6.545   4.744
 4223SOL    HW216464   0.510   6.456   4.830
 4224SOL     OW16465   1.360   6.448   4.769
 4224SOL    HW116466   1.285   6.448   4.703
 4224SOL    HW216467   1.397   6.356   4.778
 4225SOL     OW16468   1.209   6.111   3.999
 4225SOL    HW116469   1.222   6.027   4.053
 4225SOL    HW216470   1.180   6.185   4.059
 4226SOL     OW16471   0.307   5.799   4.955
 4226SOL    HW116472   0.284   5.836   5.045
 4226SOL    HW216473   0.277   5.704   4.949
 4227SOL     OW16474   0.037   6.896   5.006
 4227SOL    HW116475   0.090   6.847   5.074
 4227SOL    HW216476   0.059   6.994   5.011
 4228SOL     OW16477   0.732   6.220   4.788
 4228SOL    HW116478   0.791   6.194   4.712
 4228SOL    HW216479   0.704   6.316   4.777
 4229SOL     OW16480   1.728   6.521   5.578
 4229SOL    HW116481   1.682   6.514   5.489
 4229SOL    HW216482   1.666   6.565   5.644
 4230SOL     OW16483   0.307   5.649   4.342
 4230SOL    HW116484   0.296   5.743   4.375
 4230SOL    HW216485   0.302   5.586   4.419
 4231SOL     OW16486   1.622   5.953   4.098
 4231SOL    HW116487   1.624   5.877   4.162
 4231SOL    HW216488   1.574   6.030   4.138
 4232SOL     OW16489   1.023   6.352   4.690
 4232SOL    HW116490   1.038   6.373   4.786
 4232SOL    HW216491   0.993   6.257   4.681
 4233SOL     OW16492   1.859   7.104   5.329
 4233SOL    HW116493   1.873   7.131   5.234
 4233SOL    HW216494   1.942   7.126   5.382
 4234SOL     OW16495   0.350   6.484   5.528
 4234SOL    HW116496   0.426   6.528   5.576
 4234SOL    HW216497   0.385   6.437   5.446
 4235SOL     OW16498   1.540   5.860   3.849
 4235SOL    HW116499   1.479   5.785   3.872
 4235SOL    HW216500   1.562   5.912   3.932
 4236SOL     OW16501   1.303   6.424   3.766
 4236SOL    HW116502   1.337   6.331   3.781
 4236SOL    HW216503   1.321   6.451   3.671
 4237SOL     OW16504   1.068   6.919   4.573
 4237SOL    HW116505   1.075   6.835   4.518
 4237SOL    HW216506   1.130   6.988   4.537
 4238SOL     OW16507   0.319   6.396   4.673
 4238SOL    HW116508   0.412   6.432   4.678
 4238SOL    HW216509   0.313   6.311   4.725
 4239SOL     OW16510   0.339   6.095   4.730
 4239SOL    HW116511   0.287   6.012   4.713
 4239SOL    HW216512   0.416   6.100   4.666
 4240SOL     OW16513   1.138   5.966   5.402
 4240SOL    HW116514   1.093   6.029   5.466
 4240SOL    HW216515   1.231   5.997   5.385
 4241SOL     OW16516   0.008   6.912   3.924
 4241SOL    HW116517  -0.085   6.933   3.893
 4241SOL    HW216518   0.018   6.813   3.937
 4242SOL     OW16519   0.088   7.387   4.651
 4242SOL    HW116520   0.046   7.301   4.624
 4242SOL    HW216521   0.182   7.390   4.617
 4243SOL     OW16522   0.504   7.154   4.634
 4243SOL    HW116523   0.570   7.228   4.643
 4243SOL    HW216524   0.548   7.075   4.592
 4244SOL     OW16525   1.002   6.382   4.962
 4244SOL    HW116526   1.043   6.350   5.048
 4244SOL    HW216527   0.906   6.355   4.959
 4245SOL     OW16528   0.040   6.130   4.838
 4245SOL    HW116529   0.125   6.097   4.797
 4245SOL    HW216530   0.053   6.145   4.936
 4246SOL     OW16531   0.189   6.106   5.446
 4246SOL    HW116532   0.248   6.066   5.376
 4246SOL    HW216533   0.131   6.177   5.405
 4247SOL     OW16534   1.369   6.536   5.384
 4247SOL    HW116535   1.408   6.625   5.404
 4247SOL    HW216536   1.379   6.516   5.287
 4248SOL     OW16537   1.657   6.190   4.930
 4248SOL    HW116538   1.619   6.121   4.992
 4248SOL    HW216539   1.739   6.154   4.886
 4249SOL     OW16540   0.252   7.150   5.468
 4249SOL    HW116541   0.222   7.207   5.544
 4249SOL    HW216542   0.245   7.053   5.494
 4250SOL     OW16543   0.671   6.050   4.993
 4250SOL    HW116544   0.637   5.961   4.963
 4250SOL    HW216545   0.697   6.104   4.913
 4251SOL     OW16546   0.930   7.264   5.189
 4251SOL    HW116547   0.906   7.246   5.094
 4251SOL    HW216548   0.960   7.358   5.199
 4252SOL     OW16549   0.159   6.723   5.190
 4252SOL    HW116550   0.181   6.662   5.266
 4252SOL    HW216551   0.169   6.674   5.104
 4253SOL     OW16552   1.347   6.645   4.958
 4253SOL    HW116553   1.371   6.582   4.884
 4253SOL    HW216554   1.257   6.685   4.940
 4254SOL     OW16555   1.302   6.441   4.033
 4254SOL    HW116556   1.216   6.410   4.075
 4254SOL    HW216557   1.298   6.427   3.934
 4255SOL     OW16558   1.759   7.333   4.878
 4255SOL    HW116559   1.820   7.363   4.805
 4255SOL    HW216560   1.721   7.244   4.856
 4256SOL     OW16561   1.252   7.317   4.852
 4256SOL    HW116562   1.336   7.322   4.798
 4256SOL    HW216563   1.229   7.221   4.870
 4257SOL     OW16564   0.083   6.844   4.746
 4257SOL    HW116565   0.078   6.843   4.846
 4257SOL    HW216566   0.000   6.803   4.708
 4258SOL     OW16567   0.688   7.248   5.440
 4258SOL    HW116568   0.632   7.329   5.449
 4258SOL    HW216569   0.740   7.252   5.354
 4259SOL     OW16570   1.726   5.721   4.247
 4259SOL    HW116571   1.799   5.704   4.180
 4259SOL    HW216572   1.695   5.634   4.285
 4260SOL     OW16573   1.388   7.159   4.201
 4260SOL    HW116574   1.455   7.171   4.127
 4260SOL    HW216575   1.348   7.248   4.224
 4261SOL     OW16576   0.130   7.380   5.575
 4261SOL    HW116577   0.089   7.306   5.628
 4261SOL    HW216578   0.194   7.431   5.633
 4262SOL     OW16579   1.280   6.513   4.396
 4262SOL    HW116580   1.340   6.432   4.398
 4262SOL    HW216581   1.320   6.582   4.336
 4263SOL     OW16582   0.830   6.859   5.146
 4263SOL    HW116583   0.825   6.892   5.241
 4263SOL    HW216584   0.744   6.878   5.100
 4264SOL     OW16585   0.672   7.202   3.878
 4264SOL    HW116586   0.681   7.212   3.779
 4264SOL    HW216587   0.632   7.113   3.899
 4265SOL     OW16588   1.650   7.306   5.118
 4265SOL    HW116589   1.703   7.316   5.034
 4265SOL    HW216590   1.623   7.396   5.152
 4266SOL     OW16591   1.841   5.761   4.687
 4266SOL    HW116592   1.880   5.676   4.651
 4266SOL    HW216593   1.743   5.763   4.668
 4267SOL     OW16594   0.263   5.912   4.444
 4267SOL    HW116595   0.184   5.963   4.410
 4267SOL    HW216596   0.254   5.897   4.542
 4268SOL     OW16597   1.194   7.198   3.755
 4268SOL    HW116598   1.200   7.105   3.792
 4268SOL    HW216599   1.135   7.198   3.675
 4269SOL     OW16600   0.822   6.588   5.096
 4269SOL    HW116601   0.862   6.587   5.004
 4269SOL    HW216602   0.832   6.680   5.136
 4270SOL     OW16603   0.916   6.496   4.015
 4270SOL    HW116604   0.979   6.534   3.947
 4270SOL    HW216605   0.956   6.413   4.054
 4271SOL     OW16606   1.504   7.193   3.768
 4271SOL    HW116607   1.412   7.230   3.775
 4271SOL    HW216608   1.542   7.213   3.678
 4272SOL     OW16609   0.372   6.874   5.214
 4272SOL    HW116610   0.359   6.967   5.180
 4272SOL    HW216611   0.288   6.822   5.201
 4273SOL     OW16612   1.614   6.878   5.013
 4273SOL    HW116613   1.674   6.881   5.093
 4273SOL    HW216614   1.539   6.942   5.026
 4274SOL     OW16615   1.039   6.684   4.420
 4274SOL    HW116616   0.969   6.637   4.474
 4274SOL    HW216617   1.098   6.616   4.377
 4275SOL     OW16618   1.014   5.822   4.695
 4275SOL    HW116619   1.006   5.786   4.602
 4275SOL    HW216620   1.012   5.746   4.760
 4276SOL     OW16621   0.590   7.073   4.215
 4276SOL    HW116622   0.632   7.015   4.145
 4276SOL    HW216623   0.546   7.152   4.171
 4277SOL     OW16624   1.709   5.971   5.105
 4277SOL    HW116625   1.782   6.040   5.109
 4277SOL    HW216626   1.737   5.896   5.046
 4278SOL     OW16627   0.255   6.934   4.014
 4278SOL    HW116628   0.159   6.935   3.987
 4278SOL    HW216629   0.267   6.987   4.098
 4279SOL     OW16630   0.105   6.599   5.450
 4279SOL    HW116631   0.028   6.566   5.504
 4279SOL    HW216632   0.190   6.569   5.492
 4280SOL     OW16633   0.672   5.789   5.213
 4280SOL    HW116634   0.762   5.773   5.173
 4280SOL    HW216635   0.680   5.794   5.312
 4281SOL     OW16636   0.075   5.931   3.757
 4281SOL    HW116637  -0.017   5.903   3.728
 4281SOL    HW216638   0.106   6.008   3.701
 4282SOL     OW16639   1.440   6.442   5.122
 4282SOL    HW116640   1.383   6.494   5.059
 4282SOL    HW216641   1.536   6.454   5.098
 4283SOL     OW16642   0.072   5.752   4.042
 4283SOL    HW116643   0.055   5.835   3.988
 4283SOL    HW216644   0.162   5.715   4.020
 4284SOL     OW16645   1.183   6.921   3.843
 4284SOL    HW116646   1.084   6.910   3.845
 4284SOL    HW216647   1.217   6.936   3.936
 4285SOL     OW16648   0.613   6.428   5.155
 4285SOL    HW116649   0.669   6.509   5.138
 4285SOL    HW216650   0.672   6.348   5.158
 4286SOL     OW16651   1.493   7.353   4.683
 4286SOL    HW116652   1.526   7.417   4.614
 4286SOL    HW216653   1.559   7.347   4.758
 4287SOL     OW16654   0.716   6.151   5.432
 4287SOL    HW116655   0.735   6.216   5.506
 4287SOL    HW216656   0.776   6.071   5.441
 4288SOL     OW16657   1.450   6.806   5.357
 4288SOL    HW116658   1.441   6.796   5.456
 4288SOL    HW216659   1.546   6.799   5.331
 4289SOL     OW16660   0.390   7.327   5.284
 4289SOL    HW116661   0.299   7.368   5.282
 4289SOL    HW216662   0.383   7.233   5.316
 4290SOL     OW16663   1.674   6.469   4.978
 4290SOL    HW116664   1.647   6.380   4.941
 4290SOL    HW216665   1.675   6.537   4.905
 4291SOL     OW16666   1.225   5.911   4.173
 4291SOL    HW116667   1.290   5.837   4.162
 4291SOL    HW216668   1.245   5.961   4.257
 4292SOL     OW16669   1.777   5.928   5.366
 4292SOL    HW116670   1.760   5.959   5.272
 4292SOL    HW216671   1.693   5.891   5.404
 4293SOL     OW16672   1.730   6.520   5.241
 4293SOL    HW116673   1.768   6.611   5.256
 4293SOL    HW216674   1.722   6.503   5.142
 4294SOL     OW16675   0.859   6.960   3.740
 4294SOL    HW116676   0.813   6.975   3.828
 4294SOL    HW216677   0.903   7.045   3.710
 4295SOL     OW16678   0.661   7.376   4.677
 4295SOL    HW116679   0.615   7.464   4.664
 4295SOL    HW216680   0.760   7.388   4.670
 4296SOL     OW16681   0.859   6.542   4.585
 4296SOL    HW116682   0.913   6.473   4.633
 4296SOL    HW216683   0.827   6.611   4.651
 4297SOL     OW16684   1.083   6.570   3.811
 4297SOL    HW116685   1.060   6.623   3.729
 4297SOL    HW216686   1.164   6.514   3.792
 4298SOL     OW16687   1.861   7.155   4.575
 4298SOL    HW116688   1.790   7.143   4.505
 4298SOL    HW216689   1.862   7.076   4.635
 4299SOL     OW16690   0.221   6.900   5.568
 4299SOL    HW116691   0.156   6.827   5.547
 4299SOL    HW216692   0.225   6.914   5.666
 4300SOL     OW16693   0.079   6.826   4.377
 4300SOL    HW116694   0.078   6.779   4.465
 4300SOL    HW216695   0.161   6.798   4.326
 4301SOL     OW16696   0.672   6.977   5.348
 4301SOL    HW116697   0.594   6.927   5.386
 4301SOL    HW216698   0.669   7.072   5.379
 4302SOL     OW16699   1.824   5.778   4.951
 4302SOL    HW116700   1.820   5.688   4.995
 4302SOL    HW216701   1.827   5.767   4.852
 4303SOL     OW16702   0.428   6.010   4.244
 4303SOL    HW116703   0.458   5.938   4.182
 4303SOL    HW216704   0.389   5.970   4.327
 4304SOL     OW16705   1.705   7.073   4.828
 4304SOL    HW116706   1.612   7.048   4.801
 4304SOL    HW216707   1.731   7.023   4.910
 4305SOL     OW16708   0.317   6.133   5.004
 4305SOL    HW116709   0.355   6.074   5.076
 4305SOL    HW216710   0.357   6.107   4.916
 4306SOL     OW16711   0.812   7.172   4.411
 4306SOL    HW116712   0.844   7.182   4.317
 4306SOL    HW216713   0.733   7.110   4.413
 4307SOL     OW16714   1.001   5.620   4.878
 4307SOL    HW116715   0.938   5.548   4.847
 4307SOL    HW216716   1.094   5.584   4.878
 4308SOL     OW16717   0.770   6.916   4.025
 4308SOL    HW116718   0.724   6.829   4.042
 4308SOL    HW216719   0.861   6.913   4.066
 4309SOL     OW16720   0.618   7.153   5.008
 4309SOL    HW116721   0.613   7.235   5.065
 4309SOL    HW216722   0.707   7.150   4.963
 4310SOL     OW16723   1.352   5.638   3.892
 4310SOL    HW116724   1.387   5.597   3.808
 4310SOL    HW216725   1.262   5.600   3.912
 4311SOL     OW16726   1.300   6.039   4.415
 4311SOL    HW116727   1.241   6.119   4.419
 4311SOL    HW216728   1.315   6.004   4.508
 4312SOL     OW16729   1.593   5.807   4.606
 4312SOL    HW116730   1.509   5.806   4.660
 4312SOL    HW216731   1.595   5.890   4.550
 4313SOL     OW16732   0.039   6.663   4.024
 4313SOL    HW116733   0.138   6.652   4.015
 4313SOL    HW216734  -0.001   6.577   4.056
 4314SOL     OW16735   0.875   7.232   4.061
 4314SOL    HW116736   0.798   7.197   4.007
 4314SOL    HW216737   0.843   7.303   4.123
 4315SOL     OW16738   0.230   6.214   5.699
 4315SOL    HW116739   0.137   6.212   5.736
 4315SOL    HW216740   0.231   6.175   5.607
 4316SOL     OW16741   0.225   5.861   6.582
 4316SOL    HW116742   0.260   5.844   6.674
 4316SOL    HW216743   0.137   5.816   6.570
 4317SOL     OW16744   0.019   5.954   6.233
 4317SOL    HW116745  -0.063   5.997   6.272
 4317SOL    HW216746  -0.009   5.881   6.170
 4318SOL     OW16747   0.569   6.861   6.751
 4318SOL    HW116748   0.476   6.854   6.714
 4318SOL    HW216749   0.580   6.950   6.795
 4319SOL     OW16750   1.555   7.097   6.289
 4319SOL    HW116751   1.498   7.081   6.370
 4319SOL    HW216752   1.496   7.107   6.209
 4320SOL     OW16753   1.135   6.289   6.303
 4320SOL    HW116754   1.192   6.367   6.278
 4320SOL    HW216755   1.075   6.315   6.379
 4321SOL     OW16756   1.755   6.193   5.817
 4321SOL    HW116757   1.743   6.180   5.718
 4321SOL    HW216758   1.725   6.112   5.866
 4322SOL     OW16759   0.768   6.730   6.609
 4322SOL    HW116760   0.690   6.747   6.669
 4322SOL    HW216761   0.802   6.817   6.573
 4323SOL     OW16762   0.850   6.384   7.409
 4323SOL    HW116763   0.846   6.460   7.474
 4323SOL    HW216764   0.872   6.420   7.318
 4324SOL     OW16765   0.685   6.598   6.251
 4324SOL    HW116766   0.754   6.582   6.321
 4324SOL    HW216767   0.612   6.655   6.289
 4325SOL     OW16768   0.686   6.747   7.389
 4325SOL    HW116769   0.746   6.826   7.403
 4325SOL    HW216770   0.600   6.778   7.348
 4326SOL     OW16771   0.335   7.021   6.647
 4326SOL    HW116772   0.257   6.990   6.594
 4326SOL    HW216773   0.393   7.079   6.590
 4327SOL     OW16774   1.460   7.091   6.925
 4327SOL    HW116775   1.484   7.185   6.951
 4327SOL    HW216776   1.444   7.037   7.007
 4328SOL     OW16777   0.438   5.978   7.085
 4328SOL    HW116778   0.520   5.922   7.094
 4328SOL    HW216779   0.357   5.920   7.089
 4329SOL     OW16780   0.231   7.299   6.069
 4329SOL    HW116781   0.265   7.376   6.123
 4329SOL    HW216782   0.275   7.299   5.979
 4330SOL     OW16783   1.127   6.927   7.276
 4330SOL    HW116784   1.174   6.927   7.364
 4330SOL    HW216785   1.079   6.840   7.265
 4331SOL     OW16786   0.230   7.020   6.124
 4331SOL    HW116787   0.204   7.116   6.124
 4331SOL    HW216788   0.159   6.966   6.169
 4332SOL     OW16789   0.240   6.677   6.472
 4332SOL    HW116790   0.254   6.593   6.524
 4332SOL    HW216791   0.185   6.741   6.527
 4333SOL     OW16792   0.620   7.372   7.025
 4333SOL    HW116793   0.528   7.355   7.060
 4333SOL    HW216794   0.648   7.464   7.051
 4334SOL     OW16795   0.606   6.550   5.709
 4334SOL    HW116796   0.613   6.634   5.655
 4334SOL    HW216797   0.652   6.563   5.797
 4335SOL     OW16798   1.594   5.700   7.066
 4335SOL    HW116799   1.576   5.767   6.994
 4335SOL    HW216800   1.591   5.746   7.155
 4336SOL     OW16801   0.122   6.229   6.149
 4336SOL    HW116802   0.077   6.141   6.166
 4336SOL    HW216803   0.121   6.283   6.233
 4337SOL     OW16804   1.842   7.353   5.945
 4337SOL    HW116805   1.896   7.324   6.025
 4337SOL    HW216806   1.872   7.443   5.916
 4338SOL     OW16807   0.027   7.182   5.703
 4338SOL    HW116808   0.008   7.086   5.724
 4338SOL    HW216809  -0.006   7.240   5.778
 4339SOL     OW16810   1.689   6.508   6.198
 4339SOL    HW116811   1.784   6.479   6.206
 4339SOL    HW216812   1.681   6.573   6.123
 4340SOL     OW16813   1.641   6.694   6.018
 4340SOL    HW116814   1.727   6.696   5.966
 4340SOL    HW216815   1.655   6.741   6.106
 4341SOL     OW16816   0.113   6.323   7.183
 4341SOL    HW116817   0.201   6.310   7.228
 4341SOL    HW216818   0.100   6.420   7.161
 4342SOL     OW16819   0.613   6.951   6.312
 4342SOL    HW116820   0.564   6.864   6.321
 4342SOL    HW216821   0.590   6.994   6.225
 4343SOL     OW16822   1.293   6.814   7.009
 4343SOL    HW116823   1.330   6.741   6.951
 4343SOL    HW216824   1.345   6.819   7.094
 4344SOL     OW16825   0.809   5.590   6.088
 4344SOL    HW116826   0.849   5.681   6.079
 4344SOL    HW216827   0.709   5.598   6.094
 4345SOL     OW16828   0.197   6.562   6.850
 4345SOL    HW116829   0.286   6.517   6.836
 4345SOL    HW216830   0.124   6.497   6.831
 4346SOL     OW16831   1.525   6.585   5.776
 4346SOL    HW116832   1.462   6.509   5.789
 4346SOL    HW216833   1.573   6.603   5.862
 4347SOL     OW16834   1.187   7.378   7.202
 4347SOL    HW116835   1.211   7.438   7.126
 4347SOL    HW216836   1.194   7.283   7.172
 4348SOL     OW16837   0.317   5.837   7.387
 4348SOL    HW116838   0.388   5.908   7.393
 4348SOL    HW216839   0.229   5.876   7.415
 4349SOL     OW16840   1.466   7.003   6.539
 4349SOL    HW116841   1.407   7.009   6.619
 4349SOL    HW216842   1.451   6.915   6.493
 4350SOL     OW16843   1.667   7.300   6.158
 4350SOL    HW116844   1.626   7.277   6.070
 4350SOL    HW216845   1.649   7.226   6.223
 4351SOL     OW16846   0.598   6.315   5.856
 4351SOL    HW116847   0.622   6.384   5.788
 4351SOL    HW216848   0.520   6.348   5.910
 4352SOL     OW16849   1.281   5.931   6.530
 4352SOL    HW116850   1.195   5.881   6.517
 4352SOL    HW216851   1.343   5.877   6.586
 4353SOL     OW16852   1.576   7.248   5.893
 4353SOL    HW116853   1.665   7.294   5.896
 4353SOL    HW216854   1.555   7.224   5.798
 4354SOL     OW16855   0.807   6.191   7.051
 4354SOL    HW116856   0.760   6.188   7.140
 4354SOL    HW216857   0.756   6.136   6.985
 4355SOL     OW16858   1.394   6.055   7.260
 4355SOL    HW116859   1.374   6.098   7.348
 4355SOL    HW216860   1.472   5.993   7.269
 4356SOL     OW16861   0.973   6.476   7.158
 4356SOL    HW116862   1.019   6.392   7.129
 4356SOL    HW216863   0.917   6.510   7.083
 4357SOL     OW16864   0.991   5.996   6.828
 4357SOL    HW116865   0.914   6.030   6.882
 4357SOL    HW216866   0.957   5.945   6.749
 4358SOL     OW16867   1.041   6.287   6.015
 4358SOL    HW116868   1.067   6.283   6.111
 4358SOL    HW216869   0.956   6.236   6.001
 4359SOL     OW16870   0.076   6.397   6.375
 4359SOL    HW116871   0.175   6.385   6.384
 4359SOL    HW216872   0.052   6.492   6.396
 4360SOL     OW16873   0.130   7.407   7.157
 4360SOL    HW116874   0.120   7.392   7.256
 4360SOL    HW216875   0.044   7.443   7.121
 4361SOL     OW16876   0.865   5.934   5.781
 4361SOL    HW116877   0.924   5.997   5.732
 4361SOL    HW216878   0.884   5.840   5.752
 4362SOL     OW16879   1.719   6.171   7.417
 4362SOL    HW116880   1.693   6.260   7.381
 4362SOL    HW216881   1.717   6.103   7.344
 4363SOL     OW16882   1.362   6.730   6.131
 4363SOL    HW116883   1.445   6.701   6.083
 4363SOL    HW216884   1.313   6.797   6.075
 4364SOL     OW16885   0.550   5.782   6.471
 4364SOL    HW116886   0.545   5.777   6.571
 4364SOL    HW216887   0.552   5.878   6.442
 4365SOL     OW16888   1.008   7.042   6.063
 4365SOL    HW116889   0.962   7.114   6.011
 4365SOL    HW216890   1.004   7.062   6.161
 4366SOL     OW16891   0.351   7.387   6.439
 4366SOL    HW116892   0.401   7.301   6.445
 4366SOL    HW216893   0.416   7.464   6.436
 4367SOL     OW16894   1.795   6.652   6.459
 4367SOL    HW116895   1.733   6.637   6.383
 4367SOL    HW216896   1.743   6.663   6.544
 4368SOL     OW16897   1.227   7.136   7.092
 4368SOL    HW116898   1.233   7.059   7.156
 4368SOL    HW216899   1.175   7.110   7.012
 4369SOL     OW16900   0.321   6.529   5.828
 4369SOL    HW116901   0.403   6.568   5.786
 4369SOL    HW216902   0.294   6.447   5.779
 4370SOL     OW16903   1.458   6.321   6.314
 4370SOL    HW116904   1.453   6.256   6.389
 4370SOL    HW216905   1.538   6.380   6.327
 4371SOL     OW16906   0.461   6.852   7.313
 4371SOL    HW116907   0.411   6.853   7.227
 4371SOL    HW216908   0.398   6.834   7.389
 4372SOL     OW16909   1.111   7.362   5.823
 4372SOL    HW116910   1.051   7.300   5.873
 4372SOL    HW216911   1.142   7.318   5.738
 4373SOL     OW16912   0.202   5.871   7.084
 4373SOL    HW116913   0.122   5.931   7.071
 4373SOL    HW216914   0.192   5.822   7.170
 4374SOL     OW16915   1.632   6.963   5.667
 4374SOL    HW116916   1.600   7.057   5.657
 4374SOL    HW216917   1.556   6.900   5.655
 4375SOL     OW16918   0.464   7.329   5.909
 4375SOL    HW116919   0.497   7.368   5.995
 4375SOL    HW216920   0.540   7.322   5.844
 4376SOL     OW16921   1.400   5.693   6.012
 4376SOL    HW116922   1.376   5.656   5.922
 4376SOL    HW216923   1.499   5.709   6.016
 4377SOL     OW16924   0.249   7.371   6.827
 4377SOL    HW116925   0.306   7.306   6.877
 4377SOL    HW216926   0.233   7.338   6.734
 4378SOL     OW16927   0.940   7.284   6.490
 4378SOL    HW116928   1.020   7.227   6.511
 4378SOL    HW216929   0.891   7.244   6.413
 4379SOL     OW16930   0.382   6.286   6.066
 4379SOL    HW116931   0.427   6.196   6.063
 4379SOL    HW216932   0.288   6.275   6.099
 4380SOL     OW16933   1.547   5.808   7.315
 4380SOL    HW116934   1.542   5.845   7.407
 4380SOL    HW216935   1.475   5.739   7.303
 4381SOL     OW16936   0.614   5.708   5.703
 4381SOL    HW116937   0.712   5.686   5.710
 4381SOL    HW216938   0.583   5.691   5.610
 4382SOL     OW16939   0.781   5.850   7.335
 4382SOL    HW116940   0.848   5.789   7.378
 4382SOL    HW216941   0.708   5.869   7.400
 4383SOL     OW16942   0.888   7.100   6.781
 4383SOL    HW116943   0.865   7.075   6.687
 4383SOL    HW216944   0.949   7.031   6.820
 4384SOL     OW16945   1.351   6.176   7.019
 4384SOL    HW116946   1.379   6.133   7.104
 4384SOL    HW216947   1.376   6.272   7.020
 4385SOL     OW16948   0.803   6.988   6.510
 4385SOL    HW116949   0.893   7.002   6.468
 4385SOL    HW216950   0.732   6.990   6.439
 4386SOL     OW16951   0.922   6.089   6.485
 4386SOL    HW116952   0.897   6.080   6.389
 4386SOL    HW216953   0.970   6.007   6.516
 4387SOL     OW16954   0.539   5.650   6.098
 4387SOL    HW116955   0.458   5.651   6.156
 4387SOL    HW216956   0.542   5.733   6.043
 4388SOL     OW16957   1.434   6.774   5.627
 4388SOL    HW116958   1.466   6.698   5.684
 4388SOL    HW216959   1.342   6.801   5.657
 4389SOL     OW16960   0.297   5.621   5.757
 4389SOL    HW116961   0.346   5.705   5.736
 4389SOL    HW216962   0.359   5.556   5.802
 4390SOL     OW16963   0.935   5.822   6.066
 4390SOL    HW116964   0.887   5.863   5.988
 4390SOL    HW216965   1.034   5.820   6.047
 4391SOL     OW16966   1.076   6.269   7.050
 4391SOL    HW116967   0.996   6.208   7.053
 4391SOL    HW216968   1.157   6.216   7.026
 4392SOL     OW16969   1.227   7.156   6.379
 4392SOL    HW116970   1.248   7.230   6.314
 4392SOL    HW216971   1.295   7.156   6.452
 4393SOL     OW16972   0.459   6.738   6.327
 4393SOL    HW116973   0.388   6.711   6.392
 4393SOL    HW216974   0.433   6.710   6.234
 4394SOL     OW16975   1.271   7.383   6.177
 4394SOL    HW116976   1.315   7.447   6.113
 4394SOL    HW216977   1.221   7.435   6.247
 4395SOL     OW16978   1.032   6.135   5.602
 4395SOL    HW116979   0.991   6.217   5.563
 4395SOL    HW216980   1.096   6.161   5.675
 4396SOL     OW16981   0.078   6.142   6.972
 4396SOL    HW116982   0.170   6.141   6.931
 4396SOL    HW216983   0.072   6.216   7.039
 4397SOL     OW16984   0.561   5.808   6.733
 4397SOL    HW116985   0.599   5.724   6.770
 4397SOL    HW216986   0.473   5.827   6.777
 4398SOL     OW16987   0.866   6.040   6.228
 4398SOL    HW116988   0.834   6.112   6.166
 4398SOL    HW216989   0.890   5.959   6.175
 4399SOL     OW16990   1.017   5.625   6.339
 4399SOL    HW116991   0.945   5.630   6.270
 4399SOL    HW216992   0.993   5.556   6.408
 4400SOL     OW16993   1.429   6.759   6.453
 4400SOL    HW116994   1.374   6.675   6.446
 4400SOL    HW216995   1.455   6.788   6.361
 4401SOL     OW16996   1.466   6.176   6.578
 4401SOL    HW116997   1.436   6.081   6.585
 4401SOL    HW216998   1.539   6.192   6.644
 4402SOL     OW16999   1.857   6.419   5.963
 4402SOL    HW117000   1.899   6.355   6.027
 4402SOL    HW217001   1.819   6.368   5.885
 4403SOL     OW17002   0.488   6.971   5.760
 4403SOL    HW117003   0.401   6.956   5.807
 4403SOL    HW217004   0.471   6.997   5.665
 4404SOL     OW17005   1.664   6.866   6.243
 4404SOL    HW117006   1.763   6.874   6.257
 4404SOL    HW217007   1.619   6.950   6.274
 4405SOL     OW17008   1.390   6.161   5.664
 4405SOL    HW117009   1.336   6.140   5.745
 4405SOL    HW217010   1.481   6.120   5.673
 4406SOL     OW17011   0.527   5.842   5.914
 4406SOL    HW117012   0.554   5.783   5.839
 4406SOL    HW217013   0.527   5.937   5.883
 4407SOL     OW17014   1.754   6.809   7.174
 4407SOL    HW117015   1.845   6.770   7.161
 4407SOL    HW217016   1.762   6.905   7.198
 4408SOL     OW17017   1.064   6.933   6.926
 4408SOL    HW117018   0.984   6.910   6.981
 4408SOL    HW217019   1.147   6.907   6.975
 4409SOL     OW17020   1.592   7.215   7.211
 4409SOL    HW117021   1.619   7.249   7.121
 4409SOL    HW217022   1.671   7.177   7.257
 4410SOL     OW17023   1.111   6.781   6.686
 4410SOL    HW117024   1.071   6.825   6.767
 4410SOL    HW217025   1.070   6.818   6.603
 4411SOL     OW17026   1.638   6.685   6.665
 4411SOL    HW117027   1.643   6.766   6.724
 4411SOL    HW217028   1.552   6.687   6.614
 4412SOL     OW17029   0.915   5.675   6.988
 4412SOL    HW117030   0.940   5.655   6.893
 4412SOL    HW217031   0.987   5.731   7.030
 4413SOL     OW17032   0.980   6.702   7.305
 4413SOL    HW117033   0.881   6.708   7.315
 4413SOL    HW217034   1.003   6.622   7.249
 4414SOL     OW17035   0.705   6.636   5.954
 4414SOL    HW117036   0.691   6.643   6.053
 4414SOL    HW217037   0.789   6.585   5.936
 4415SOL     OW17038   0.410   6.399   6.837
 4415SOL    HW117039   0.496   6.411   6.887
 4415SOL    HW217040   0.368   6.312   6.864
 4416SOL     OW17041   1.274   5.972   6.848
 4416SOL    HW117042   1.295   6.046   6.912
 4416SOL    HW217043   1.185   5.989   6.805
 4417SOL     OW17044   0.064   7.150   6.917
 4417SOL    HW117045   0.018   7.232   6.883
 4417SOL    HW217046   0.162   7.169   6.926
 4418SOL     OW17047   0.367   6.686   6.087
 4418SOL    HW117048   0.360   6.769   6.031
 4418SOL    HW217049   0.371   6.606   6.027
 4419SOL     OW17050   0.566   6.123   6.451
 4419SOL    HW117051   0.578   6.189   6.377
 4419SOL    HW217052   0.612   6.157   6.534
 4420SOL     OW17053   1.252   6.934   5.974
 4420SOL    HW117054   1.302   7.011   6.014
 4420SOL    HW217055   1.157   6.936   6.006
 4421SOL     OW17056   1.272   7.031   6.728
 4421SOL    HW117057   1.319   7.044   6.815
 4421SOL    HW217058   1.206   6.957   6.737
 4422SOL     OW17059   1.582   6.225   6.058
 4422SOL    HW117060   1.551   6.286   6.131
 4422SOL    HW217061   1.632   6.277   5.989
 4423SOL     OW17062   0.354   7.096   6.915
 4423SOL    HW117063   0.333   7.052   6.828
 4423SOL    HW217064   0.451   7.122   6.918
 4424SOL     OW17065   0.402   6.337   7.184
 4424SOL    HW117066   0.470   6.392   7.137
 4424SOL    HW217067   0.442   6.249   7.211
 4425SOL     OW17068   1.587   6.365   7.256
 4425SOL    HW117069   1.495   6.403   7.251
 4425SOL    HW217070   1.647   6.412   7.191
 4426SOL     OW17071   0.504   5.636   7.326
 4426SOL    HW117072   0.462   5.579   7.256
 4426SOL    HW217073   0.438   5.705   7.358
 4427SOL     OW17074   0.573   6.456   6.615
 4427SOL    HW117075   0.617   6.545   6.606
 4427SOL    HW217076   0.510   6.456   6.692
 4428SOL     OW17077   1.360   6.448   6.631
 4428SOL    HW117078   1.285   6.448   6.565
 4428SOL    HW217079   1.397   6.356   6.640
 4429SOL     OW17080   1.209   6.111   5.861
 4429SOL    HW117081   1.222   6.027   5.915
 4429SOL    HW217082   1.180   6.185   5.921
 4430SOL     OW17083   0.307   5.799   6.817
 4430SOL    HW117084   0.284   5.836   6.907
 4430SOL    HW217085   0.277   5.704   6.811
 4431SOL     OW17086   0.037   6.896   6.868
 4431SOL    HW117087   0.090   6.847   6.936
 4431SOL    HW217088   0.059   6.994   6.873
 4432SOL     OW17089   0.732   6.220   6.650
 4432SOL    HW117090   0.791   6.194   6.574
 4432SOL    HW217091   0.704   6.316   6.639
 4433SOL     OW17092   1.728   6.521   7.440
 4433SOL    HW117093   1.682   6.514   7.351
 4433SOL    HW217094   1.666   6.565   7.506
 4434SOL     OW17095   0.307   5.649   6.204
 4434SOL    HW117096   0.296   5.743   6.237
 4434SOL    HW217097   0.302   5.586   6.281
 4435SOL     OW17098   1.622   5.953   5.960
 4435SOL    HW117099   1.624   5.877   6.024
 4435SOL    HW217100   1.574   6.030   6.000
 4436SOL     OW17101   1.023   6.352   6.552
 4436SOL    HW117102   1.038   6.373   6.648
 4436SOL    HW217103   0.993   6.257   6.543
 4437SOL     OW17104   0.980   7.159   7.286
 4437SOL    HW117105   0.960   7.203   7.198
 4437SOL    HW217106   1.019   7.068   7.270
 4438SOL     OW17107   1.859   7.104   7.191
 4438SOL    HW117108   1.873   7.131   7.096
 4438SOL    HW217109   1.942   7.126   7.244
 4439SOL     OW17110   0.350   6.484   7.390
 4439SOL    HW117111   0.426   6.528   7.438
 4439SOL    HW217112   0.385   6.437   7.308
 4440SOL     OW17113   1.540   5.860   5.711
 4440SOL    HW117114   1.479   5.785   5.734
 4440SOL    HW217115   1.562   5.912   5.794
 4441SOL     OW17116   1.303   6.424   5.628
 4441SOL    HW117117   1.337   6.331   5.643
 4441SOL    HW217118   1.321   6.451   5.533
 4442SOL     OW17119   1.068   6.919   6.435
 4442SOL    HW117120   1.075   6.835   6.380
 4442SOL    HW217121   1.130   6.988   6.399
 4443SOL     OW17122   0.319   6.396   6.535
 4443SOL    HW117123   0.412   6.432   6.540
 4443SOL    HW217124   0.313   6.311   6.587
 4444SOL     OW17125   0.339   6.095   6.592
 4444SOL    HW117126   0.287   6.012   6.575
 4444SOL    HW217127   0.416   6.100   6.528
 4445SOL     OW17128   0.008   6.912   5.786
 4445SOL    HW117129  -0.085   6.933   5.755
 4445SOL    HW217130   0.018   6.813   5.799
 4446SOL     OW17131   0.088   7.387   6.513
 4446SOL    HW117132   0.046   7.301   6.486
 4446SOL    HW217133   0.182   7.390   6.479
 4447SOL     OW17134   0.504   7.154   6.496
 4447SOL    HW117135   0.570   7.228   6.505
 4447SOL    HW217136   0.548   7.075   6.454
 4448SOL     OW17137   1.002   6.382   6.824
 4448SOL    HW117138   1.043   6.350   6.910
 4448SOL    HW217139   0.906   6.355   6.821
 4449SOL     OW17140   0.040   6.130   6.700
 4449SOL    HW117141   0.125   6.097   6.659
 4449SOL    HW217142   0.053   6.145   6.798
 4450SOL     OW17143   0.189   6.106   7.308
 4450SOL    HW117144   0.248   6.066   7.238
 4450SOL    HW217145   0.131   6.177   7.267
 4451SOL     OW17146   1.369   6.536   7.246
 4451SOL    HW117147   1.408   6.625   7.266
 4451SOL    HW217148   1.379   6.516   7.149
 4452SOL     OW17149   0.815   6.158   5.911
 4452SOL    HW117150   0.822   6.069   5.865
 4452SOL    HW217151   0.721   6.192   5.903
 4453SOL     OW17152   1.657   6.190   6.792
 4453SOL    HW117153   1.619   6.121   6.854
 4453SOL    HW217154   1.739   6.154   6.748
 4454SOL     OW17155   0.252   7.150   7.330
 4454SOL    HW117156   0.222   7.207   7.406
 4454SOL    HW217157   0.245   7.053   7.356
 4455SOL     OW17158   0.671   6.050   6.855
 4455SOL    HW117159   0.637   5.961   6.825
 4455SOL    HW217160   0.697   6.104   6.775
 4456SOL     OW17161   0.930   7.264   7.051
 4456SOL    HW117162   0.906   7.246   6.956
 4456SOL    HW217163   0.960   7.358   7.061
 4457SOL     OW17164   0.473   6.086   5.777
 4457SOL    HW117165   0.534   6.166   5.781
 4457SOL    HW217166   0.378   6.117   5.784
 4458SOL     OW17167   0.159   6.723   7.052
 4458SOL    HW117168   0.181   6.662   7.128
 4458SOL    HW217169   0.169   6.674   6.966
 4459SOL     OW17170   1.347   6.645   6.820
 4459SOL    HW117171   1.371   6.582   6.746
 4459SOL    HW217172   1.257   6.685   6.802
 4460SOL     OW17173   1.302   6.441   5.895
 4460SOL    HW117174   1.216   6.410   5.937
 4460SOL    HW217175   1.298   6.427   5.796
 4461SOL     OW17176   1.759   7.333   6.740
 4461SOL    HW117177   1.820   7.363   6.667
 4461SOL    HW217178   1.721   7.244   6.718
 4462SOL     OW17179   1.252   7.317   6.714
 4462SOL    HW117180   1.336   7.322   6.660
 4462SOL    HW217181   1.229   7.221   6.732
 4463SOL     OW17182   0.083   6.844   6.608
 4463SOL    HW117183   0.078   6.843   6.708
 4463SOL    HW217184   0.000   6.803   6.570
 4464SOL     OW17185   0.688   7.248   7.302
 4464SOL    HW117186   0.632   7.329   7.311
 4464SOL    HW217187   0.740   7.252   7.216
 4465SOL     OW17188   1.726   5.721   6.109
 4465SOL    HW117189   1.799   5.704   6.042
 4465SOL    HW217190   1.695   5.634   6.147
 4466SOL     OW17191   1.388   7.159   6.063
 4466SOL    HW117192   1.455   7.171   5.989
 4466SOL    HW217193   1.348   7.248   6.086
 4467SOL     OW17194   0.130   7.380   7.437
 4467SOL    HW117195   0.089   7.306   7.490
 4467SOL    HW217196   0.194   7.431   7.495
 4468SOL     OW17197   1.280   6.513   6.258
 4468SOL    HW117198   1.340   6.432   6.260
 4468SOL    HW217199   1.320   6.582   6.198
 4469SOL     OW17200   0.830   6.859   7.008
 4469SOL    HW117201   0.825   6.892   7.103
 4469SOL    HW217202   0.744   6.878   6.962
 4470SOL     OW17203   0.672   7.202   5.740
 4470SOL    HW117204   0.681   7.212   5.641
 4470SOL    HW217205   0.632   7.113   5.761
 4471SOL     OW17206   1.650   7.306   6.980
 4471SOL    HW117207   1.703   7.316   6.896
 4471SOL    HW217208   1.623   7.396   7.014
 4472SOL     OW17209   1.841   5.761   6.549
 4472SOL    HW117210   1.880   5.676   6.513
 4472SOL    HW217211   1.743   5.763   6.530
 4473SOL     OW17212   0.263   5.912   6.306
 4473SOL    HW117213   0.184   5.963   6.272
 4473SOL    HW217214   0.254   5.897   6.404
 4474SOL     OW17215   1.194   7.198   5.617
 4474SOL    HW117216   1.200   7.105   5.654
 4474SOL    HW217217   1.135   7.198   5.537
 4475SOL     OW17218   0.822   6.588   6.958
 4475SOL    HW117219   0.862   6.587   6.866
 4475SOL    HW217220   0.832   6.680   6.998
 4476SOL     OW17221   0.916   6.496   5.877
 4476SOL    HW117222   0.979   6.534   5.809
 4476SOL    HW217223   0.956   6.413   5.916
 4477SOL     OW17224   1.504   7.193   5.630
 4477SOL    HW117225   1.412   7.230   5.637
 4477SOL    HW217226   1.542   7.213   5.540
 4478SOL     OW17227   0.372   6.874   7.076
 4478SOL    HW117228   0.359   6.967   7.042
 4478SOL    HW217229   0.288   6.822   7.063
 4479SOL     OW17230   1.614   6.878   6.875
 4479SOL    HW117231   1.674   6.881   6.955
 4479SOL    HW217232   1.539   6.942   6.888
 4480SOL     OW17233   1.039   6.684   6.282
 4480SOL    HW117234   0.969   6.637   6.336
 4480SOL    HW217235   1.098   6.616   6.239
 4481SOL     OW17236   1.014   5.822   6.557
 4481SOL    HW117237   1.006   5.786   6.464
 4481SOL    HW217238   1.012   5.746   6.622
 4482SOL     OW17239   0.590   7.073   6.077
 4482SOL    HW117240   0.632   7.015   6.007
 4482SOL    HW217241   0.546   7.152   6.033
 4483SOL     OW17242   1.709   5.971   6.967
 4483SOL    HW117243   1.782   6.040   6.971
 4483SOL    HW217244   1.737   5.896   6.908
 4484SOL     OW17245   0.255   6.934   5.876
 4484SOL    HW117246   0.159   6.935   5.849
 4484SOL    HW217247   0.267   6.987   5.960
 4485SOL     OW17248   0.105   6.599   7.312
 4485SOL    HW117249   0.028   6.566   7.366
 4485SOL    HW217250   0.190   6.569   7.354
 4486SOL     OW17251   0.672   5.789   7.075
 4486SOL    HW117252   0.762   5.773   7.035
 4486SOL    HW217253   0.680   5.794   7.174
 4487SOL     OW17254   0.075   5.931   5.619
 4487SOL    HW117255  -0.017   5.903   5.590
 4487SOL    HW217256   0.106   6.008   5.563
 4488SOL     OW17257   1.440   6.442   6.984
 4488SOL    HW117258   1.383   6.494   6.921
 4488SOL    HW217259   1.536   6.454   6.960
 4489SOL     OW17260   0.072   5.752   5.904
 4489SOL    HW117261   0.055   5.835   5.850
 4489SOL    HW217262   0.162   5.715   5.882
 4490SOL     OW17263   1.183   6.921   5.705
 4490SOL    HW117264   1.084   6.910   5.707
 4490SOL    HW217265   1.217   6.936   5.798
 4491SOL     OW17266   0.613   6.428   7.017
 4491SOL    HW117267   0.669   6.509   7.000
 4491SOL    HW217268   0.672   6.348   7.020
 4492SOL     OW17269   1.493   7.353   6.545
 4492SOL    HW117270   1.526   7.417   6.476
 4492SOL    HW217271   1.559   7.347   6.620
 4493SOL     OW17272   0.716   6.151   7.294
 4493SOL    HW117273   0.735   6.216   7.368
 4493SOL    HW217274   0.776   6.071   7.303
 4494SOL     OW17275   1.450   6.806   7.219
 4494SOL    HW117276   1.441   6.796   7.318
 4494SOL    HW217277   1.546   6.799   7.193
 4495SOL     OW17278   0.390   7.327   7.146
 4495SOL    HW117279   0.299   7.368   7.144
 4495SOL    HW217280   0.383   7.233   7.178
 4496SOL     OW17281   1.674   6.469   6.840
 4496SOL    HW117282   1.647   6.380   6.803
 4496SOL    HW217283   1.675   6.537   6.767
 4497SOL     OW17284   1.225   5.911   6.035
 4497SOL    HW117285   1.290   5.837   6.024
 4497SOL    HW217286   1.245   5.961   6.119
 4498SOL     OW17287   0.594   6.331   6.238
 4498SOL    HW117288   0.644   6.416   6.219
 4498SOL    HW217289   0.506   6.333   6.190
 4499SOL     OW17290   1.777   5.928   7.228
 4499SOL    HW117291   1.760   5.959   7.134
 4499SOL    HW217292   1.693   5.891   7.266
 4500SOL     OW17293   1.730   6.520   7.103
 4500SOL    HW117294   1.768   6.611   7.118
 4500SOL    HW217295   1.722   6.503   7.004
 4501SOL     OW17296   0.859   6.960   5.602
 4501SOL    HW117297   0.813   6.975   5.690
 4501SOL    HW217298   0.903   7.045   5.572
 4502SOL     OW17299   0.661   7.376   6.539
 4502SOL    HW117300   0.615   7.464   6.526
 4502SOL    HW217301   0.760   7.388   6.532
 4503SOL     OW17302   0.859   6.542   6.447
 4503SOL    HW117303   0.913   6.473   6.495
 4503SOL    HW217304   0.827   6.611   6.513
 4504SOL     OW17305   1.083   6.570   5.673
 4504SOL    HW117306   1.060   6.623   5.591
 4504SOL    HW217307   1.164   6.514   5.654
 4505SOL     OW17308   1.861   7.155   6.437
 4505SOL    HW117309   1.790   7.143   6.367
 4505SOL    HW217310   1.862   7.076   6.497
 4506SOL     OW17311   0.221   6.900   7.430
 4506SOL    HW117312   0.156   6.827   7.409
 4506SOL    HW217313   0.225   6.914   7.528
 4507SOL     OW17314   0.079   6.826   6.239
 4507SOL    HW117315   0.078   6.779   6.327
 4507SOL    HW217316   0.161   6.798   6.188
 4508SOL     OW17317   0.672   6.977   7.210
 4508SOL    HW117318   0.594   6.927   7.248
 4508SOL    HW217319   0.669   7.072   7.241
 4509SOL     OW17320   1.824   5.778   6.813
 4509SOL    HW117321   1.820   5.688   6.857
 4509SOL    HW217322   1.827   5.767   6.714
 4510SOL     OW17323   0.428   6.010   6.106
 4510SOL    HW117324   0.458   5.938   6.044
 4510SOL    HW217325   0.389   5.970   6.189
 4511SOL     OW17326   1.705   7.073   6.690
 4511SOL    HW117327   1.612   7.048   6.663
 4511SOL    HW217328   1.731   7.023   6.772
 4512SOL     OW17329   0.317   6.133   6.866
 4512SOL    HW117330   0.355   6.074   6.938
 4512SOL    HW217331   0.357   6.107   6.778
 4513SOL     OW17332   0.812   7.172   6.273
 4513SOL    HW117333   0.844   7.182   6.179
 4513SOL    HW217334   0.733   7.110   6.275
 4514SOL     OW17335   1.424   5.800   6.698
 4514SOL    HW117336   1.476   5.735   6.753
 4514SOL    HW217337   1.375   5.863   6.759
 4515SOL     OW17338   1.001   5.620   6.740
 4515SOL    HW117339   0.938   5.548   6.709
 4515SOL    HW217340   1.094   5.584   6.740
 4516SOL     OW17341   0.770   6.916   5.887
 4516SOL    HW117342   0.724   6.829   5.904
 4516SOL    HW217343   0.861   6.913   5.928
 4517SOL     OW17344   0.618   7.153   6.870
 4517SOL    HW117345   0.613   7.235   6.927
 4517SOL    HW217346   0.707   7.150   6.825
 4518SOL     OW17347   1.352   5.638   5.754
 4518SOL    HW117348   1.387   5.597   5.670
 4518SOL    HW217349   1.262   5.600   5.774
 4519SOL     OW17350   1.300   6.039   6.277
 4519SOL    HW117351   1.241   6.119   6.281
 4519SOL    HW217352   1.315   6.004   6.370
 4520SOL     OW17353   1.593   5.807   6.468
 4520SOL    HW117354   1.509   5.806   6.522
 4520SOL    HW217355   1.595   5.890   6.412
 4521SOL     OW17356   0.039   6.663   5.886
 4521SOL    HW117357   0.138   6.652   5.877
 4521SOL    HW217358  -0.001   6.577   5.918
 4522SOL     OW17359   0.875   7.232   5.923
 4522SOL    HW117360   0.798   7.197   5.869
 4522SOL    HW217361   0.843   7.303   5.985
 4523SOL     OW17362   0.230   6.214   7.561
 4523SOL    HW117363   0.137   6.212   7.598
 4523SOL    HW217364   0.231   6.175   7.469
 4524SOL     OW17365   0.225   5.861   8.444
 4524SOL    HW117366   0.260   5.844   8.536
 4524SOL    HW217367   0.137   5.816   8.432
 4525SOL     OW17368   0.019   5.954   8.095
 4525SOL    HW117369  -0.063   5.997   8.134
 4525SOL    HW217370  -0.009   5.881   8.032
 4526SOL     OW17371   0.569   6.861   8.613
 4526SOL    HW117372   0.476   6.854   8.576
 4526SOL    HW217373   0.580   6.950   8.657
 4527SOL     OW17374   1.555   7.097   8.151
 4527SOL    HW117375   1.498   7.081   8.232
 4527SOL    HW217376   1.496   7.107   8.071
 4528SOL     OW17377   1.755   6.193   7.679
 4528SOL    HW117378   1.743   6.180   7.580
 4528SOL    HW217379   1.725   6.112   7.728
 4529SOL     OW17380   0.768   6.730   8.471
 4529SOL    HW117381   0.690   6.747   8.531
 4529SOL    HW217382   0.802   6.817   8.435
 4530SOL     OW17383   0.850   6.384   9.271
 4530SOL    HW117384   0.846   6.460   9.336
 4530SOL    HW217385   0.872   6.420   9.180
 4531SOL     OW17386   0.685   6.598   8.113
 4531SOL    HW117387   0.754   6.582   8.183
 4531SOL    HW217388   0.612   6.655   8.151
 4532SOL     OW17389   0.686   6.747   9.251
 4532SOL    HW117390   0.746   6.826   9.265
 4532SOL    HW217391   0.600   6.778   9.210
 4533SOL     OW17392   0.335   7.021   8.509
 4533SOL    HW117393   0.257   6.990   8.456
 4533SOL    HW217394   0.393   7.079   8.452
 4534SOL     OW17395   1.460   7.091   8.787
 4534SOL    HW117396   1.484   7.185   8.813
 4534SOL    HW217397   1.444   7.037   8.869
 4535SOL     OW17398   0.438   5.978   8.947
 4535SOL    HW117399   0.520   5.922   8.956
 4535SOL    HW217400   0.357   5.920   8.951
 4536SOL     OW17401   0.231   7.299   7.931
 4536SOL    HW117402   0.265   7.376   7.985
 4536SOL    HW217403   0.275   7.299   7.841
 4537SOL     OW17404   1.127   6.927   9.138
 4537SOL    HW117405   1.174   6.927   9.226
 4537SOL    HW217406   1.079   6.840   9.127
 4538SOL     OW17407   0.230   7.020   7.986
 4538SOL    HW117408   0.204   7.116   7.986
 4538SOL    HW217409   0.159   6.966   8.031
 4539SOL     OW17410   0.240   6.677   8.334
 4539SOL    HW117411   0.254   6.593   8.386
 4539SOL    HW217412   0.185   6.741   8.389
 4540SOL     OW17413   0.620   7.372   8.887
 4540SOL    HW117414   0.528   7.355   8.922
 4540SOL    HW217415   0.648   7.464   8.913
 4541SOL     OW17416   0.606   6.550   7.571
 4541SOL    HW117417   0.613   6.634   7.517
 4541SOL    HW217418   0.652   6.563   7.659
 4542SOL     OW17419   1.594   5.700   8.928
 4542SOL    HW117420   1.576   5.767   8.856
 4542SOL    HW217421   1.591   5.746   9.017
 4543SOL     OW17422   0.122   6.229   8.011
 4543SOL    HW117423   0.077   6.141   8.028
 4543SOL    HW217424   0.121   6.283   8.095
 4544SOL     OW17425   1.842   7.353   7.807
 4544SOL    HW117426   1.896   7.324   7.887
 4544SOL    HW217427   1.872   7.443   7.778
 4545SOL     OW17428   0.027   7.182   7.565
 4545SOL    HW117429   0.008   7.086   7.586
 4545SOL    HW217430  -0.006   7.240   7.640
 4546SOL     OW17431   1.689   6.508   8.060
 4546SOL    HW117432   1.784   6.479   8.068
 4546SOL    HW217433   1.681   6.573   7.985
 4547SOL     OW17434   1.641   6.694   7.880
 4547SOL    HW117435   1.727   6.696   7.828
 4547SOL    HW217436   1.655   6.741   7.968
 4548SOL     OW17437   0.113   6.323   9.045
 4548SOL    HW117438   0.201   6.310   9.090
 4548SOL    HW217439   0.100   6.420   9.023
 4549SOL     OW17440   0.613   6.951   8.174
 4549SOL    HW117441   0.564   6.864   8.183
 4549SOL    HW217442   0.590   6.994   8.087
 4550SOL     OW17443   1.293   6.814   8.871
 4550SOL    HW117444   1.330   6.741   8.813
 4550SOL    HW217445   1.345   6.819   8.956
 4551SOL     OW17446   0.809   5.590   7.950
 4551SOL    HW117447   0.849   5.681   7.941
 4551SOL    HW217448   0.709   5.598   7.956
 4552SOL     OW17449   1.525   6.585   7.638
 4552SOL    HW117450   1.462   6.509   7.651
 4552SOL    HW217451   1.573   6.603   7.724
 4553SOL     OW17452   1.187   7.378   9.064
 4553SOL    HW117453   1.211   7.438   8.988
 4553SOL    HW217454   1.194   7.283   9.034
 4554SOL     OW17455   0.317   5.837   9.249
 4554SOL    HW117456   0.388   5.908   9.255
 4554SOL    HW217457   0.229   5.876   9.277
 4555SOL     OW17458   1.466   7.003   8.401
 4555SOL    HW117459   1.407   7.009   8.481
 4555SOL    HW217460   1.451   6.915   8.355
 4556SOL     OW17461   1.667   7.300   8.020
 4556SOL    HW117462   1.626   7.277   7.932
 4556SOL    HW217463   1.649   7.226   8.085
 4557SOL     OW17464   0.598   6.315   7.718
 4557SOL    HW117465   0.622   6.384   7.650
 4557SOL    HW217466   0.520   6.348   7.772
 4558SOL     OW17467   1.281   5.931   8.392
 4558SOL    HW117468   1.195   5.881   8.379
 4558SOL    HW217469   1.343   5.877   8.448
 4559SOL     OW17470   1.576   7.248   7.755
 4559SOL    HW117471   1.665   7.294   7.758
 4559SOL    HW217472   1.555   7.224   7.660
 4560SOL     OW17473   0.807   6.191   8.913
 4560SOL    HW117474   0.760   6.188   9.002
 4560SOL    HW217475   0.756   6.136   8.847
 4561SOL     OW17476   1.394   6.055   9.122
 4561SOL    HW117477   1.374   6.098   9.210
 4561SOL    HW217478   1.472   5.993   9.131
 4562SOL     OW17479   0.973   6.476   9.020
 4562SOL    HW117480   1.019   6.392   8.991
 4562SOL    HW217481   0.917   6.510   8.945
 4563SOL     OW17482   0.991   5.996   8.690
 4563SOL    HW117483   0.914   6.030   8.744
 4563SOL    HW217484   0.957   5.945   8.611
 4564SOL     OW17485   0.076   6.397   8.237
 4564SOL    HW117486   0.175   6.385   8.246
 4564SOL    HW217487   0.052   6.492   8.258
 4565SOL     OW17488   0.865   5.934   7.643
 4565SOL    HW117489   0.924   5.997   7.594
 4565SOL    HW217490   0.884   5.840   7.614
 4566SOL     OW17491   1.719   6.171   9.279
 4566SOL    HW117492   1.693   6.260   9.243
 4566SOL    HW217493   1.717   6.103   9.206
 4567SOL     OW17494   1.362   6.730   7.993
 4567SOL    HW117495   1.445   6.701   7.945
 4567SOL    HW217496   1.313   6.797   7.937
 4568SOL     OW17497   0.550   5.782   8.333
 4568SOL    HW117498   0.545   5.777   8.433
 4568SOL    HW217499   0.552   5.878   8.304
 4569SOL     OW17500   1.008   7.042   7.925
 4569SOL    HW117501   0.962   7.114   7.873
 4569SOL    HW217502   1.004   7.062   8.023
 4570SOL     OW17503   0.351   7.387   8.301
 4570SOL    HW117504   0.401   7.301   8.307
 4570SOL    HW217505   0.416   7.464   8.298
 4571SOL     OW17506   1.795   6.652   8.321
 4571SOL    HW117507   1.733   6.637   8.245
 4571SOL    HW217508   1.743   6.663   8.406
 4572SOL     OW17509   1.227   7.136   8.954
 4572SOL    HW117510   1.233   7.059   9.018
 4572SOL    HW217511   1.175   7.110   8.874
 4573SOL     OW17512   0.321   6.529   7.690
 4573SOL    HW117513   0.403   6.568   7.648
 4573SOL    HW217514   0.294   6.447   7.641
 4574SOL     OW17515   1.458   6.321   8.176
 4574SOL    HW117516   1.453   6.256   8.251
 4574SOL    HW217517   1.538   6.380   8.189
 4575SOL     OW17518   1.111   7.362   7.685
 4575SOL    HW117519   1.051   7.300   7.735
 4575SOL    HW217520   1.142   7.318   7.600
 4576SOL     OW17521   0.202   5.871   8.946
 4576SOL    HW117522   0.122   5.931   8.933
 4576SOL    HW217523   0.192   5.822   9.032
 4577SOL     OW17524   1.632   6.963   7.529
 4577SOL    HW117525   1.600   7.057   7.519
 4577SOL    HW217526   1.556   6.900   7.517
 4578SOL     OW17527   0.464   7.329   7.771
 4578SOL    HW117528   0.497   7.368   7.857
 4578SOL    HW217529   0.540   7.322   7.706
 4579SOL     OW17530   1.400   5.693   7.874
 4579SOL    HW117531   1.376   5.656   7.784
 4579SOL    HW217532   1.499   5.709   7.878
 4580SOL     OW17533   0.249   7.371   8.689
 4580SOL    HW117534   0.306   7.306   8.739
 4580SOL    HW217535   0.233   7.338   8.596
 4581SOL     OW17536   0.940   7.284   8.352
 4581SOL    HW117537   1.020   7.227   8.373
 4581SOL    HW217538   0.891   7.244   8.275
 4582SOL     OW17539   0.382   6.286   7.928
 4582SOL    HW117540   0.427   6.196   7.925
 4582SOL    HW217541   0.288   6.275   7.961
 4583SOL     OW17542   1.547   5.808   9.177
 4583SOL    HW117543   1.542   5.845   9.269
 4583SOL    HW217544   1.475   5.739   9.165
 4584SOL     OW17545   0.614   5.708   7.565
 4584SOL    HW117546   0.712   5.686   7.572
 4584SOL    HW217547   0.583   5.691   7.472
 4585SOL     OW17548   0.781   5.850   9.197
 4585SOL    HW117549   0.848   5.789   9.240
 4585SOL    HW217550   0.708   5.869   9.262
 4586SOL     OW17551   0.888   7.100   8.643
 4586SOL    HW117552   0.865   7.075   8.549
 4586SOL    HW217553   0.949   7.031   8.682
 4587SOL     OW17554   1.351   6.176   8.881
 4587SOL    HW117555   1.379   6.133   8.966
 4587SOL    HW217556   1.376   6.272   8.882
 4588SOL     OW17557   0.803   6.988   8.372
 4588SOL    HW117558   0.893   7.002   8.330
 4588SOL    HW217559   0.732   6.990   8.301
 4589SOL     OW17560   0.922   6.089   8.347
 4589SOL    HW117561   0.897   6.080   8.251
 4589SOL    HW217562   0.970   6.007   8.378
 4590SOL     OW17563   0.539   5.650   7.960
 4590SOL    HW117564   0.458   5.651   8.018
 4590SOL    HW217565   0.542   5.733   7.905
 4591SOL     OW17566   1.434   6.774   7.489
 4591SOL    HW117567   1.466   6.698   7.546
 4591SOL    HW217568   1.342   6.801   7.519
 4592SOL     OW17569   0.297   5.621   7.619
 4592SOL    HW117570   0.346   5.705   7.598
 4592SOL    HW217571   0.359   5.556   7.664
 4593SOL     OW17572   0.935   5.822   7.928
 4593SOL    HW117573   0.887   5.863   7.850
 4593SOL    HW217574   1.034   5.820   7.909
 4594SOL     OW17575   1.076   6.269   8.912
 4594SOL    HW117576   0.996   6.208   8.915
 4594SOL    HW217577   1.157   6.216   8.888
 4595SOL     OW17578   1.227   7.156   8.241
 4595SOL    HW117579   1.248   7.230   8.176
 4595SOL    HW217580   1.295   7.156   8.314
 4596SOL     OW17581   0.459   6.738   8.189
 4596SOL    HW117582   0.388   6.711   8.254
 4596SOL    HW217583   0.433   6.710   8.096
 4597SOL     OW17584   1.271   7.383   8.039
 4597SOL    HW117585   1.315   7.447   7.975
 4597SOL    HW217586   1.221   7.435   8.109
 4598SOL     OW17587   1.032   6.135   7.464
 4598SOL    HW117588   0.991   6.217   7.425
 4598SOL    HW217589   1.096   6.161   7.537
 4599SOL     OW17590   0.078   6.142   8.834
 4599SOL    HW117591   0.170   6.141   8.793
 4599SOL    HW217592   0.072   6.216   8.901
 4600SOL     OW17593   0.561   5.808   8.595
 4600SOL    HW117594   0.599   5.724   8.632
 4600SOL    HW217595   0.473   5.827   8.639
 4601SOL     OW17596   0.866   6.040   8.090
 4601SOL    HW117597   0.834   6.112   8.028
 4601SOL    HW217598   0.890   5.959   8.037
 4602SOL     OW17599   1.017   5.625   8.201
 4602SOL    HW117600   0.945   5.630   8.132
 4602SOL    HW217601   0.993   5.556   8.270
 4603SOL     OW17602   1.429   6.759   8.315
 4603SOL    HW117603   1.374   6.675   8.308
 4603SOL    HW217604   1.455   6.788   8.223
 4604SOL     OW17605   1.466   6.176   8.440
 4604SOL    HW117606   1.436   6.081   8.447
 4604SOL    HW217607   1.539   6.192   8.506
 4605SOL     OW17608   1.857   6.419   7.825
 4605SOL    HW117609   1.899   6.355   7.889
 4605SOL    HW217610   1.819   6.368   7.747
 4606SOL     OW17611   0.488   6.971   7.622
 4606SOL    HW117612   0.401   6.956   7.669
 4606SOL    HW217613   0.471   6.997   7.527
 4607SOL     OW17614   1.664   6.866   8.105
 4607SOL    HW117615   1.763   6.874   8.119
 4607SOL    HW217616   1.619   6.950   8.136
 4608SOL     OW17617   1.390   6.161   7.526
 4608SOL    HW117618   1.336   6.140   7.607
 4608SOL    HW217619   1.481   6.120   7.535
 4609SOL     OW17620   0.527   5.842   7.776
 4609SOL    HW117621   0.554   5.783   7.701
 4609SOL    HW217622   0.527   5.937   7.745
 4610SOL     OW17623   1.754   6.809   9.036
 4610SOL    HW117624   1.845   6.770   9.023
 4610SOL    HW217625   1.762   6.905   9.060
 4611SOL     OW17626   1.064   6.933   8.788
 4611SOL    HW117627   0.984   6.910   8.843
 4611SOL    HW217628   1.147   6.907   8.837
 4612SOL     OW17629   1.592   7.215   9.073
 4612SOL    HW117630   1.619   7.249   8.983
 4612SOL    HW217631   1.671   7.177   9.119
 4613SOL     OW17632   1.111   6.781   8.548
 4613SOL    HW117633   1.071   6.825   8.629
 4613SOL    HW217634   1.070   6.818   8.465
 4614SOL     OW17635   1.638   6.685   8.527
 4614SOL    HW117636   1.643   6.766   8.586
 4614SOL    HW217637   1.552   6.687   8.476
 4615SOL     OW17638   0.915   5.675   8.850
 4615SOL    HW117639   0.940   5.655   8.755
 4615SOL    HW217640   0.987   5.731   8.892
 4616SOL     OW17641   0.980   6.702   9.167
 4616SOL    HW117642   0.881   6.708   9.177
 4616SOL    HW217643   1.003   6.622   9.111
 4617SOL     OW17644   0.705   6.636   7.816
 4617SOL    HW117645   0.691   6.643   7.915
 4617SOL    HW217646   0.789   6.585   7.798
 4618SOL     OW17647   0.410   6.399   8.699
 4618SOL    HW117648   0.496   6.411   8.749
 4618SOL    HW217649   0.368   6.312   8.726
 4619SOL     OW17650   1.274   5.972   8.710
 4619SOL    HW117651   1.295   6.046   8.774
 4619SOL    HW217652   1.185   5.989   8.667
 4620SOL     OW17653   0.367   6.686   7.949
 4620SOL    HW117654   0.360   6.769   7.893
 4620SOL    HW217655   0.371   6.606   7.889
 4621SOL     OW17656   0.566   6.123   8.313
 4621SOL    HW117657   0.578   6.189   8.239
 4621SOL    HW217658   0.612   6.157   8.396
 4622SOL     OW17659   1.252   6.934   7.836
 4622SOL    HW117660   1.302   7.011   7.876
 4622SOL    HW217661   1.157   6.936   7.868
 4623SOL     OW17662   1.272   7.031   8.590
 4623SOL    HW117663   1.319   7.044   8.677
 4623SOL    HW217664   1.206   6.957   8.599
 4624SOL     OW17665   0.354   7.096   8.777
 4624SOL    HW117666   0.333   7.052   8.690
 4624SOL    HW217667   0.451   7.122   8.780
 4625SOL     OW17668   0.402   6.337   9.046
 4625SOL    HW117669   0.470   6.392   8.999
 4625SOL    HW217670   0.442   6.249   9.073
 4626SOL     OW17671   1.587   6.365   9.118
 4626SOL    HW117672   1.495   6.403   9.113
 4626SOL    HW217673   1.647   6.412   9.053
 4627SOL     OW17674   1.013   5.691   9.218
 4627SOL    HW117675   1.019   5.776   9.166
 4627SOL    HW217676   1.045   5.615   9.161
 4628SOL     OW17677   0.504   5.636   9.188
 4628SOL    HW117678   0.462   5.579   9.118
 4628SOL    HW217679   0.438   5.705   9.220
 4629SOL     OW17680   0.573   6.456   8.477
 4629SOL    HW117681   0.617   6.545   8.468
 4629SOL    HW217682   0.510   6.456   8.554
 4630SOL     OW17683   1.360   6.448   8.493
 4630SOL    HW117684   1.285   6.448   8.427
 4630SOL    HW217685   1.397   6.356   8.502
 4631SOL     OW17686   1.209   6.111   7.723
 4631SOL    HW117687   1.222   6.027   7.777
 4631SOL    HW217688   1.180   6.185   7.783
 4632SOL     OW17689   0.307   5.799   8.679
 4632SOL    HW117690   0.284   5.836   8.769
 4632SOL    HW217691   0.277   5.704   8.673
 4633SOL     OW17692   0.732   6.220   8.512
 4633SOL    HW117693   0.791   6.194   8.436
 4633SOL    HW217694   0.704   6.316   8.501
 4634SOL     OW17695   1.728   6.521   9.302
 4634SOL    HW117696   1.682   6.514   9.213
 4634SOL    HW217697   1.666   6.565   9.368
 4635SOL     OW17698   0.307   5.649   8.066
 4635SOL    HW117699   0.296   5.743   8.099
 4635SOL    HW217700   0.302   5.586   8.143
 4636SOL     OW17701   1.622   5.953   7.822
 4636SOL    HW117702   1.624   5.877   7.886
 4636SOL    HW217703   1.574   6.030   7.862
 4637SOL     OW17704   1.023   6.352   8.414
 4637SOL    HW117705   1.038   6.373   8.510
 4637SOL    HW217706   0.993   6.257   8.405
 4638SOL     OW17707   1.859   7.104   9.053
 4638SOL    HW117708   1.873   7.131   8.958
 4638SOL    HW217709   1.942   7.126   9.106
 4639SOL     OW17710   0.350   6.484   9.252
 4639SOL    HW117711   0.426   6.528   9.300
 4639SOL    HW217712   0.385   6.437   9.170
 4640SOL     OW17713   1.303   6.424   7.490
 4640SOL    HW117714   1.337   6.331   7.505
 4640SOL    HW217715   1.321   6.451   7.395
 4641SOL     OW17716   1.068   6.919   8.297
 4641SOL    HW117717   1.075   6.835   8.242
 4641SOL    HW217718   1.130   6.988   8.261
 4642SOL     OW17719   0.319   6.396   8.397
 4642SOL    HW117720   0.412   6.432   8.402
 4642SOL    HW217721   0.313   6.311   8.449
 4643SOL     OW17722   0.339   6.095   8.454
 4643SOL    HW117723   0.287   6.012   8.437
 4643SOL    HW217724   0.416   6.100   8.390
 4644SOL     OW17725   1.138   5.966   9.126
 4644SOL    HW117726   1.093   6.029   9.190
 4644SOL    HW217727   1.231   5.997   9.109
 4645SOL     OW17728   1.160   5.793   8.925
 4645SOL    HW117729   1.160   5.857   9.002
 4645SOL    HW217730   1.188   5.841   8.842
 4646SOL     OW17731   0.008   6.912   7.648
 4646SOL    HW117732  -0.085   6.933   7.617
 4646SOL    HW217733   0.018   6.813   7.661
 4647SOL     OW17734   0.088   7.387   8.375
 4647SOL    HW117735   0.046   7.301   8.348
 4647SOL    HW217736   0.182   7.390   8.341
 4648SOL     OW17737   0.504   7.154   8.358
 4648SOL    HW117738   0.570   7.228   8.367
 4648SOL    HW217739   0.548   7.075   8.316
 4649SOL     OW17740   1.002   6.382   8.686
 4649SOL    HW117741   1.043   6.350   8.772
 4649SOL    HW217742   0.906   6.355   8.683
 4650SOL     OW17743   0.040   6.130   8.562
 4650SOL    HW117744   0.125   6.097   8.521
 4650SOL    HW217745   0.053   6.145   8.660
 4651SOL     OW17746   0.189   6.106   9.170
 4651SOL    HW117747   0.248   6.066   9.100
 4651SOL    HW217748   0.131   6.177   9.129
 4652SOL     OW17749   1.369   6.536   9.108
 4652SOL    HW117750   1.408   6.625   9.128
 4652SOL    HW217751   1.379   6.516   9.011
 4653SOL     OW17752   0.815   6.158   7.773
 4653SOL    HW117753   0.822   6.069   7.727
 4653SOL    HW217754   0.721   6.192   7.765
 4654SOL     OW17755   1.657   6.190   8.654
 4654SOL    HW117756   1.619   6.121   8.716
 4654SOL    HW217757   1.739   6.154   8.610
 4655SOL     OW17758   0.671   6.050   8.717
 4655SOL    HW117759   0.637   5.961   8.687
 4655SOL    HW217760   0.697   6.104   8.637
 4656SOL     OW17761   0.930   7.264   8.913
 4656SOL    HW117762   0.906   7.246   8.818
 4656SOL    HW217763   0.960   7.358   8.923
 4657SOL     OW17764   0.473   6.086   7.639
 4657SOL    HW117765   0.534   6.166   7.643
 4657SOL    HW217766   0.378   6.117   7.646
 4658SOL     OW17767   0.159   6.723   8.914
 4658SOL    HW117768   0.181   6.662   8.990
 4658SOL    HW217769   0.169   6.674   8.828
 4659SOL     OW17770   1.347   6.645   8.682
 4659SOL    HW117771   1.371   6.582   8.608
 4659SOL    HW217772   1.257   6.685   8.664
 4660SOL     OW17773   1.759   7.333   8.602
 4660SOL    HW117774   1.820   7.363   8.529
 4660SOL    HW217775   1.721   7.244   8.580
 4661SOL     OW17776   1.252   7.317   8.576
 4661SOL    HW117777   1.336   7.322   8.522
 4661SOL    HW217778   1.229   7.221   8.594
 4662SOL     OW17779   0.083   6.844   8.470
 4662SOL    HW117780   0.078   6.843   8.570
 4662SOL    HW217781   0.000   6.803   8.432
 4663SOL     OW17782   0.688   7.248   9.164
 4663SOL    HW117783   0.632   7.329   9.173
 4663SOL    HW217784   0.740   7.252   9.078
 4664SOL     OW17785   1.726   5.721   7.971
 4664SOL    HW117786   1.799   5.704   7.904
 4664SOL    HW217787   1.695   5.634   8.009
 4665SOL     OW17788   1.388   7.159   7.925
 4665SOL    HW117789   1.455   7.171   7.851
 4665SOL    HW217790   1.348   7.248   7.948
 4666SOL     OW17791   0.130   7.380   9.299
 4666SOL    HW117792   0.089   7.306   9.352
 4666SOL    HW217793   0.194   7.431   9.357
 4667SOL     OW17794   0.830   6.859   8.870
 4667SOL    HW117795   0.825   6.892   8.965
 4667SOL    HW217796   0.744   6.878   8.824
 4668SOL     OW17797   0.672   7.202   7.602
 4668SOL    HW117798   0.681   7.212   7.503
 4668SOL    HW217799   0.632   7.113   7.623
 4669SOL     OW17800   1.650   7.306   8.842
 4669SOL    HW117801   1.703   7.316   8.758
 4669SOL    HW217802   1.623   7.396   8.876
 4670SOL     OW17803   1.841   5.761   8.411
 4670SOL    HW117804   1.880   5.676   8.375
 4670SOL    HW217805   1.743   5.763   8.392
 4671SOL     OW17806   0.263   5.912   8.168
 4671SOL    HW117807   0.184   5.963   8.134
 4671SOL    HW217808   0.254   5.897   8.266
 4672SOL     OW17809   1.194   7.198   7.479
 4672SOL    HW117810   1.200   7.105   7.516
 4672SOL    HW217811   1.135   7.198   7.399
 4673SOL     OW17812   0.822   6.588   8.820
 4673SOL    HW117813   0.862   6.587   8.728
 4673SOL    HW217814   0.832   6.680   8.860
 4674SOL     OW17815   0.916   6.496   7.739
 4674SOL    HW117816   0.979   6.534   7.671
 4674SOL    HW217817   0.956   6.413   7.778
 4675SOL     OW17818   1.504   7.193   7.492
 4675SOL    HW117819   1.412   7.230   7.499
 4675SOL    HW217820   1.542   7.213   7.402
 4676SOL     OW17821   1.614   6.878   8.737
 4676SOL    HW117822   1.674   6.881   8.817
 4676SOL    HW217823   1.539   6.942   8.750
 4677SOL     OW17824   1.039   6.684   8.144
 4677SOL    HW117825   0.969   6.637   8.198
 4677SOL    HW217826   1.098   6.616   8.101
 4678SOL     OW17827   1.014   5.822   8.419
 4678SOL    HW117828   1.006   5.786   8.326
 4678SOL    HW217829   1.012   5.746   8.484
 4679SOL     OW17830   0.590   7.073   7.939
 4679SOL    HW117831   0.632   7.015   7.869
 4679SOL    HW217832   0.546   7.152   7.895
 4680SOL     OW17833   1.709   5.971   8.829
 4680SOL    HW117834   1.782   6.040   8.833
 4680SOL    HW217835   1.737   5.896   8.770
 4681SOL     OW17836   0.255   6.934   7.738
 4681SOL    HW117837   0.159   6.935   7.711
 4681SOL    HW217838   0.267   6.987   7.822
 4682SOL     OW17839   0.105   6.599   9.174
 4682SOL    HW117840   0.028   6.566   9.228
 4682SOL    HW217841   0.190   6.569   9.216
 4683SOL     OW17842   0.672   5.789   8.937
 4683SOL    HW117843   0.762   5.773   8.897
 4683SOL    HW217844   0.680   5.794   9.036
 4684SOL     OW17845   0.075   5.931   7.481
 4684SOL    HW117846  -0.017   5.903   7.452
 4684SOL    HW217847   0.106   6.008   7.425
 4685SOL     OW17848   1.440   6.442   8.846
 4685SOL    HW117849   1.383   6.494   8.783
 4685SOL    HW217850   1.536   6.454   8.822
 4686SOL     OW17851   0.072   5.752   7.766
 4686SOL    HW117852   0.055   5.835   7.712
 4686SOL    HW217853   0.162   5.715   7.744
 4687SOL     OW17854   1.183   6.921   7.567
 4687SOL    HW117855   1.084   6.910   7.569
 4687SOL    HW217856   1.217   6.936   7.660
 4688SOL     OW17857   0.613   6.428   8.879
 4688SOL    HW117858   0.669   6.509   8.862
 4688SOL    HW217859   0.672   6.348   8.882
 4689SOL     OW17860   1.493   7.353   8.407
 4689SOL    HW117861   1.526   7.417   8.338
 4689SOL    HW217862   1.559   7.347   8.482
 4690SOL     OW17863   0.716   6.151   9.156
 4690SOL    HW117864   0.735   6.216   9.230
 4690SOL    HW217865   0.776   6.071   9.165
 4691SOL     OW17866   1.450   6.806   9.081
 4691SOL    HW117867   1.441   6.796   9.180
 4691SOL    HW217868   1.546   6.799   9.055
 4692SOL     OW17869   1.674   6.469   8.702
 4692SOL    HW117870   1.647   6.380   8.665
 4692SOL    HW217871   1.675   6.537   8.629
 4693SOL     OW17872   0.594   6.331   8.100
 4693SOL    HW117873   0.644   6.416   8.081
 4693SOL    HW217874   0.506   6.333   8.052
 4694SOL     OW17875   1.777   5.928   9.090
 4694SOL    HW117876   1.760   5.959   8.996
 4694SOL    HW217877   1.693   5.891   9.128
 4695SOL     OW17878   1.730   6.520   8.965
 4695SOL    HW117879   1.768   6.611   8.980
 4695SOL    HW217880   1.722   6.503   8.866
 4696SOL     OW17881   0.859   6.960   7.464
 4696SOL    HW117882   0.813   6.975   7.552
 4696SOL    HW217883   0.903   7.045   7.434
 4697SOL     OW17884   0.661   7.376   8.401
 4697SOL    HW117885   0.615   7.464   8.388
 4697SOL    HW217886   0.760   7.388   8.394
 4698SOL     OW17887   0.859   6.542   8.309
 4698SOL    HW117888   0.913   6.473   8.357
 4698SOL    HW217889   0.827   6.611   8.375
 4699SOL     OW17890   1.083   6.570   7.535
 4699SOL    HW117891   1.060   6.623   7.453
 4699SOL    HW217892   1.164   6.514   7.516
 4700SOL     OW17893   1.861   7.155   8.299
 4700SOL    HW117894   1.790   7.143   8.229
 4700SOL    HW217895   1.862   7.076   8.359
 4701SOL     OW17896   0.079   6.826   8.101
 4701SOL    HW117897   0.078   6.779   8.189
 4701SOL    HW217898   0.161   6.798   8.050
 4702SOL     OW17899   0.672   6.977   9.072
 4702SOL    HW117900   0.594   6.927   9.110
 4702SOL    HW217901   0.669   7.072   9.103
 4703SOL     OW17902   1.824   5.778   8.675
 4703SOL    HW117903   1.820   5.688   8.719
 4703SOL    HW217904   1.827   5.767   8.576
 4704SOL     OW17905   0.428   6.010   7.968
 4704SOL    HW117906   0.458   5.938   7.906
 4704SOL    HW217907   0.389   5.970   8.051
 4705SOL     OW17908   1.705   7.073   8.552
 4705SOL    HW117909   1.612   7.048   8.525
 4705SOL    HW217910   1.731   7.023   8.634
 4706SOL     OW17911   0.317   6.133   8.728
 4706SOL    HW117912   0.355   6.074   8.800
 4706SOL    HW217913   0.357   6.107   8.640
 4707SOL     OW17914   0.812   7.172   8.135
 4707SOL    HW117915   0.844   7.182   8.041
 4707SOL    HW217916   0.733   7.110   8.137
 4708SOL     OW17917   1.424   5.800   8.560
 4708SOL    HW117918   1.476   5.735   8.615
 4708SOL    HW217919   1.375   5.863   8.621
 4709SOL     OW17920   1.001   5.620   8.602
 4709SOL    HW117921   0.938   5.548   8.571
 4709SOL    HW217922   1.094   5.584   8.602
 4710SOL     OW17923   0.770   6.916   7.749
 4710SOL    HW117924   0.724   6.829   7.766
 4710SOL    HW217925   0.861   6.913   7.790
 4711SOL     OW17926   0.618   7.153   8.732
 4711SOL    HW117927   0.613   7.235   8.789
 4711SOL    HW217928   0.707   7.150   8.687
 4712SOL     OW17929   1.593   5.807   8.330
 4712SOL    HW117930   1.509   5.806   8.384
 4712SOL    HW217931   1.595   5.890   8.274
 4713SOL     OW17932   0.039   6.663   7.748
 4713SOL    HW117933   0.138   6.652   7.739
 4713SOL    HW217934  -0.001   6.577   7.780
 4714SOL     OW17935   0.875   7.232   7.785
 4714SOL    HW117936   0.798   7.197   7.731
 4714SOL    HW217937   0.843   7.303   7.847
 4715SOL     OW17938   0.230   6.214   9.423
 4715SOL    HW117939   0.137   6.212   9.460
 4715SOL    HW217940   0.231   6.175   9.331
 4716SOL     OW17941   1.755   6.193   9.541
 4716SOL    HW117942   1.743   6.180   9.442
 4716SOL    HW217943   1.725   6.112   9.590
 4717SOL     OW17944   0.231   7.299   9.793
 4717SOL    HW117945   0.265   7.376   9.847
 4717SOL    HW217946   0.275   7.299   9.703
 4718SOL     OW17947   0.230   7.020   9.848
 4718SOL    HW117948   0.204   7.116   9.848
 4718SOL    HW217949   0.159   6.966   9.893
 4719SOL     OW17950   0.606   6.550   9.433
 4719SOL    HW117951   0.613   6.634   9.379
 4719SOL    HW217952   0.652   6.563   9.521
 4720SOL     OW17953   0.122   6.229   9.873
 4720SOL    HW117954   0.077   6.141   9.890
 4720SOL    HW217955   0.121   6.283   9.957
 4721SOL     OW17956   1.842   7.353   9.669
 4721SOL    HW117957   1.896   7.324   9.749
 4721SOL    HW217958   1.872   7.443   9.640
 4722SOL     OW17959   0.027   7.182   9.427
 4722SOL    HW117960   0.008   7.086   9.448
 4722SOL    HW217961  -0.006   7.240   9.502
 4723SOL     OW17962   1.689   6.508   9.922
 4723SOL    HW117963   1.784   6.479   9.930
 4723SOL    HW217964   1.681   6.573   9.847
 4724SOL     OW17965   1.641   6.694   9.742
 4724SOL    HW117966   1.727   6.696   9.690
 4724SOL    HW217967   1.655   6.741   9.830
 4725SOL     OW17968   0.613   6.951  10.036
 4725SOL    HW117969   0.564   6.864  10.045
 4725SOL    HW217970   0.590   6.994   9.949
 4726SOL     OW17971   0.809   5.590   9.812
 4726SOL    HW117972   0.849   5.681   9.803
 4726SOL    HW217973   0.709   5.598   9.818
 4727SOL     OW17974   1.525   6.585   9.500
 4727SOL    HW117975   1.462   6.509   9.513
 4727SOL    HW217976   1.573   6.603   9.586
 4728SOL     OW17977   0.598   6.315   9.580
 4728SOL    HW117978   0.622   6.384   9.512
 4728SOL    HW217979   0.520   6.348   9.634
 4729SOL     OW17980   1.576   7.248   9.617
 4729SOL    HW117981   1.665   7.294   9.620
 4729SOL    HW217982   1.555   7.224   9.522
 4730SOL     OW17983   1.041   6.287   9.739
 4730SOL    HW117984   1.067   6.283   9.835
 4730SOL    HW217985   0.956   6.236   9.725
 4731SOL     OW17986   0.865   5.934   9.505
 4731SOL    HW117987   0.924   5.997   9.456
 4731SOL    HW217988   0.884   5.840   9.476
 4732SOL     OW17989   1.362   6.730   9.855
 4732SOL    HW117990   1.445   6.701   9.807
 4732SOL    HW217991   1.313   6.797   9.799
 4733SOL     OW17992   1.008   7.042   9.787
 4733SOL    HW117993   0.962   7.114   9.735
 4733SOL    HW217994   1.004   7.062   9.885
 4734SOL     OW17995   0.351   7.387  10.163
 4734SOL    HW117996   0.401   7.301  10.169
 4734SOL    HW217997   0.416   7.464  10.160
 4735SOL     OW17998   0.321   6.529   9.552
 4735SOL    HW117999   0.403   6.568   9.510
 4735SOL    HW218000   0.294   6.447   9.503
 4736SOL     OW18001   1.632   6.963   9.391
 4736SOL    HW118002   1.600   7.057   9.381
 4736SOL    HW218003   1.556   6.900   9.379
 4737SOL     OW18004   0.464   7.329   9.633
 4737SOL    HW118005   0.497   7.368   9.719
 4737SOL    HW218006   0.540   7.322   9.568
 4738SOL     OW18007   1.400   5.693   9.736
 4738SOL    HW118008   1.376   5.656   9.646
 4738SOL    HW218009   1.499   5.709   9.740
 4739SOL     OW18010   0.382   6.286   9.790
 4739SOL    HW118011   0.427   6.196   9.787
 4739SOL    HW218012   0.288   6.275   9.823
 4740SOL     OW18013   0.614   5.708   9.427
 4740SOL    HW118014   0.712   5.686   9.434
 4740SOL    HW218015   0.583   5.691   9.334
 4741SOL     OW18016   0.539   5.650   9.822
 4741SOL    HW118017   0.458   5.651   9.880
 4741SOL    HW218018   0.542   5.733   9.767
 4742SOL     OW18019   1.434   6.774   9.351
 4742SOL    HW118020   1.466   6.698   9.408
 4742SOL    HW218021   1.342   6.801   9.381
 4743SOL     OW18022   0.297   5.621   9.481
 4743SOL    HW118023   0.346   5.705   9.460
 4743SOL    HW218024   0.359   5.556   9.526
 4744SOL     OW18025   0.935   5.822   9.790
 4744SOL    HW118026   0.887   5.863   9.712
 4744SOL    HW218027   1.034   5.820   9.771
 4745SOL     OW18028   0.459   6.738  10.051
 4745SOL    HW118029   0.388   6.711  10.116
 4745SOL    HW218030   0.433   6.710   9.958
 4746SOL     OW18031   1.271   7.383   9.901
 4746SOL    HW118032   1.315   7.447   9.837
 4746SOL    HW218033   1.221   7.435   9.971
 4747SOL     OW18034   1.032   6.135   9.326
 4747SOL    HW118035   0.991   6.217   9.287
 4747SOL    HW218036   1.096   6.161   9.399
 4748SOL     OW18037   0.866   6.040   9.952
 4748SOL    HW118038   0.834   6.112   9.890
 4748SOL    HW218039   0.890   5.959   9.899
 4749SOL     OW18040   1.857   6.419   9.687
 4749SOL    HW118041   1.899   6.355   9.751
 4749SOL    HW218042   1.819   6.368   9.609
 4750SOL     OW18043   0.488   6.971   9.484
 4750SOL    HW118044   0.401   6.956   9.531
 4750SOL    HW218045   0.471   6.997   9.389
 4751SOL     OW18046   1.390   6.161   9.388
 4751SOL    HW118047   1.336   6.140   9.469
 4751SOL    HW218048   1.481   6.120   9.397
 4752SOL     OW18049   0.527   5.842   9.638
 4752SOL    HW118050   0.554   5.783   9.563
 4752SOL    HW218051   0.527   5.937   9.607
 4753SOL     OW18052   0.705   6.636   9.678
 4753SOL    HW118053   0.691   6.643   9.777
 4753SOL    HW218054   0.789   6.585   9.660
 4754SOL     OW18055   0.367   6.686   9.811
 4754SOL    HW118056   0.360   6.769   9.755
 4754SOL    HW218057   0.371   6.606   9.751
 4755SOL     OW18058   1.252   6.934   9.698
 4755SOL    HW118059   1.302   7.011   9.738
 4755SOL    HW218060   1.157   6.936   9.730
 4756SOL     OW18061   1.582   6.225   9.782
 4756SOL    HW118062   1.551   6.286   9.855
 4756SOL    HW218063   1.632   6.277   9.713
 4757SOL     OW18064   1.209   6.111   9.585
 4757SOL    HW118065   1.222   6.027   9.639
 4757SOL    HW218066   1.180   6.185   9.645
 4758SOL     OW18067   0.307   5.649   9.928
 4758SOL    HW118068   0.296   5.743   9.961
 4758SOL    HW218069   0.302   5.586  10.005
 4759SOL     OW18070   1.622   5.953   9.684
 4759SOL    HW118071   1.624   5.877   9.748
 4759SOL    HW218072   1.574   6.030   9.724
 4760SOL     OW18073   1.540   5.860   9.435
 4760SOL    HW118074   1.479   5.785   9.458
 4760SOL    HW218075   1.562   5.912   9.518
 4761SOL     OW18076   1.303   6.424   9.352
 4761SOL    HW118077   1.337   6.331   9.367
 4761SOL    HW218078   1.321   6.451   9.257
 4762SOL     OW18079   0.008   6.912   9.510
 4762SOL    HW118080  -0.085   6.933   9.479
 4762SOL    HW218081   0.018   6.813   9.523
 4763SOL     OW18082   0.815   6.158   9.635
 4763SOL    HW118083   0.822   6.069   9.589
 4763SOL    HW218084   0.721   6.192   9.627
 4764SOL     OW18085   0.473   6.086   9.501
 4764SOL    HW118086   0.534   6.166   9.505
 4764SOL    HW218087   0.378   6.117   9.508
 4765SOL     OW18088   1.302   6.441   9.619
 4765SOL    HW118089   1.216   6.410   9.661
 4765SOL    HW218090   1.298   6.427   9.520
 4766SOL     OW18091   1.726   5.721   9.833
 4766SOL    HW118092   1.799   5.704   9.766
 4766SOL    HW218093   1.695   5.634   9.871
 4767SOL     OW18094   1.388   7.159   9.787
 4767SOL    HW118095   1.455   7.171   9.713
 4767SOL    HW218096   1.348   7.248   9.810
 4768SOL     OW18097   0.916   6.496   9.601
 4768SOL    HW118098   0.979   6.534   9.533
 4768SOL    HW218099   0.956   6.413   9.640
 4769SOL     OW18100   1.504   7.193   9.354
 4769SOL    HW118101   1.412   7.230   9.361
 4769SOL    HW218102   1.542   7.213   9.264
 4770SOL     OW18103   0.590   7.073   9.801
 4770SOL    HW118104   0.632   7.015   9.731
 4770SOL    HW218105   0.546   7.152   9.757
 4771SOL     OW18106   0.255   6.934   9.600
 4771SOL    HW118107   0.159   6.935   9.573
 4771SOL    HW218108   0.267   6.987   9.684
 4772SOL     OW18109   0.075   5.931   9.343
 4772SOL    HW118110  -0.017   5.903   9.314
 4772SOL    HW218111   0.106   6.008   9.287
 4773SOL     OW18112   0.072   5.752   9.628
 4773SOL    HW118113   0.055   5.835   9.574
 4773SOL    HW218114   0.162   5.715   9.606
 4774SOL     OW18115   1.225   5.911   9.759
 4774SOL    HW118116   1.290   5.837   9.748
 4774SOL    HW218117   1.245   5.961   9.843
 4775SOL     OW18118   1.083   6.570   9.397
 4775SOL    HW118119   1.060   6.623   9.315
 4775SOL    HW218120   1.164   6.514   9.378
 4776SOL     OW18121   0.079   6.826   9.963
 4776SOL    HW118122   0.078   6.779  10.051
 4776SOL    HW218123   0.161   6.798   9.912
 4777SOL     OW18124   0.428   6.010   9.830
 4777SOL    HW118125   0.458   5.938   9.768
 4777SOL    HW218126   0.389   5.970   9.913
 4778SOL     OW18127   0.770   6.916   9.611
 4778SOL    HW118128   0.724   6.829   9.628
 4778SOL    HW218129   0.861   6.913   9.652
 4779SOL     OW18130   1.352   5.638   9.478
 4779SOL    HW118131   1.387   5.597   9.394
 4779SOL    HW218132   1.262   5.600   9.498
 4780SOL     OW18133   0.039   6.663   9.610
 4780SOL    HW118134   0.138   6.652   9.601
 4780SOL    HW218135  -0.001   6.577   9.642
 4781SOL     OW18136   0.230   8.076   0.113
 4781SOL    HW118137   0.137   8.074   0.150
 4781SOL    HW218138   0.231   8.037   0.021
 4782SOL     OW18139   0.225   7.723   0.996
 4782SOL    HW118140   0.260   7.706   1.088
 4782SOL    HW218141   0.137   7.678   0.984
 4783SOL     OW18142   0.019   7.816   0.647
 4783SOL    HW118143  -0.063   7.859   0.686
 4783SOL    HW218144  -0.009   7.743   0.584
 4784SOL     OW18145   0.569   8.723   1.165
 4784SOL    HW118146   0.476   8.716   1.128
 4784SOL    HW218147   0.580   8.812   1.209
 4785SOL     OW18148   1.555   8.959   0.703
 4785SOL    HW118149   1.498   8.943   0.784
 4785SOL    HW218150   1.496   8.969   0.623
 4786SOL     OW18151   1.135   8.151   0.717
 4786SOL    HW118152   1.192   8.229   0.692
 4786SOL    HW218153   1.075   8.177   0.793
 4787SOL     OW18154   1.755   8.055   0.231
 4787SOL    HW118155   1.743   8.042   0.132
 4787SOL    HW218156   1.725   7.974   0.280
 4788SOL     OW18157   0.768   8.592   1.023
 4788SOL    HW118158   0.690   8.609   1.083
 4788SOL    HW218159   0.802   8.679   0.987
 4789SOL     OW18160   0.850   8.246   1.823
 4789SOL    HW118161   0.846   8.322   1.888
 4789SOL    HW218162   0.872   8.282   1.732
 4790SOL     OW18163   0.685   8.460   0.665
 4790SOL    HW118164   0.754   8.444   0.735
 4790SOL    HW218165   0.612   8.517   0.703
 4791SOL     OW18166   1.460   8.953   1.339
 4791SOL    HW118167   1.484   9.047   1.365
 4791SOL    HW218168   1.444   8.899   1.421
 4792SOL     OW18169   0.438   7.840   1.499
 4792SOL    HW118170   0.520   7.784   1.508
 4792SOL    HW218171   0.357   7.782   1.503
 4793SOL     OW18172   1.603   7.895   0.737
 4793SOL    HW118173   1.529   7.941   0.687
 4793SOL    HW218174   1.654   7.963   0.790
 4794SOL     OW18175   0.231   9.161   0.483
 4794SOL    HW118176   0.265   9.238   0.537
 4794SOL    HW218177   0.275   9.161   0.393
 4795SOL     OW18178   1.127   8.789   1.690
 4795SOL    HW118179   1.174   8.789   1.778
 4795SOL    HW218180   1.079   8.702   1.679
 4796SOL     OW18181   0.230   8.882   0.538
 4796SOL    HW118182   0.204   8.978   0.538
 4796SOL    HW218183   0.159   8.828   0.583
 4797SOL     OW18184   0.240   8.539   0.886
 4797SOL    HW118185   0.254   8.455   0.938
 4797SOL    HW218186   0.185   8.603   0.941
 4798SOL     OW18187   0.606   8.412   0.123
 4798SOL    HW118188   0.613   8.496   0.069
 4798SOL    HW218189   0.652   8.425   0.211
 4799SOL     OW18190   1.594   7.562   1.480
 4799SOL    HW118191   1.576   7.629   1.408
 4799SOL    HW218192   1.591   7.608   1.569
 4800SOL     OW18193   0.122   8.091   0.563
 4800SOL    HW118194   0.077   8.003   0.580
 4800SOL    HW218195   0.121   8.145   0.647
 4801SOL     OW18196   1.842   9.215   0.359
 4801SOL    HW118197   1.896   9.186   0.439
 4801SOL    HW218198   1.872   9.305   0.330
 4802SOL     OW18199   0.027   9.044   0.117
 4802SOL    HW118200   0.008   8.948   0.138
 4802SOL    HW218201  -0.006   9.102   0.192
 4803SOL     OW18202   1.689   8.370   0.612
 4803SOL    HW118203   1.784   8.341   0.620
 4803SOL    HW218204   1.681   8.435   0.537
 4804SOL     OW18205   1.641   8.556   0.432
 4804SOL    HW118206   1.727   8.558   0.380
 4804SOL    HW218207   1.655   8.603   0.520
 4805SOL     OW18208   0.113   8.185   1.597
 4805SOL    HW118209   0.201   8.172   1.642
 4805SOL    HW218210   0.100   8.282   1.575
 4806SOL     OW18211   0.613   8.813   0.726
 4806SOL    HW118212   0.564   8.726   0.735
 4806SOL    HW218213   0.590   8.856   0.639
 4807SOL     OW18214   1.293   8.676   1.423
 4807SOL    HW118215   1.330   8.603   1.365
 4807SOL    HW218216   1.345   8.681   1.508
 4808SOL     OW18217   0.197   8.424   1.264
 4808SOL    HW118218   0.286   8.379   1.250
 4808SOL    HW218219   0.124   8.359   1.245
 4809SOL     OW18220   1.525   8.447   0.190
 4809SOL    HW118221   1.462   8.371   0.203
 4809SOL    HW218222   1.573   8.465   0.276
 4810SOL     OW18223   1.187   9.240   1.616
 4810SOL    HW118224   1.211   9.300   1.540
 4810SOL    HW218225   1.194   9.145   1.586
 4811SOL     OW18226   1.466   8.865   0.953
 4811SOL    HW118227   1.407   8.871   1.033
 4811SOL    HW218228   1.451   8.777   0.907
 4812SOL     OW18229   1.667   9.162   0.572
 4812SOL    HW118230   1.626   9.139   0.484
 4812SOL    HW218231   1.649   9.088   0.637
 4813SOL     OW18232   0.598   8.177   0.270
 4813SOL    HW118233   0.622   8.246   0.202
 4813SOL    HW218234   0.520   8.210   0.324
 4814SOL     OW18235   1.281   7.793   0.944
 4814SOL    HW118236   1.195   7.743   0.931
 4814SOL    HW218237   1.343   7.739   1.000
 4815SOL     OW18238   1.576   9.110   0.307
 4815SOL    HW118239   1.665   9.156   0.310
 4815SOL    HW218240   1.555   9.086   0.212
 4816SOL     OW18241   0.807   8.053   1.465
 4816SOL    HW118242   0.760   8.050   1.554
 4816SOL    HW218243   0.756   7.998   1.399
 4817SOL     OW18244   1.394   7.917   1.674
 4817SOL    HW118245   1.374   7.960   1.762
 4817SOL    HW218246   1.472   7.855   1.683
 4818SOL     OW18247   0.973   8.338   1.572
 4818SOL    HW118248   1.019   8.254   1.543
 4818SOL    HW218249   0.917   8.372   1.497
 4819SOL     OW18250   0.991   7.858   1.242
 4819SOL    HW118251   0.914   7.892   1.296
 4819SOL    HW218252   0.957   7.807   1.163
 4820SOL     OW18253   1.041   8.149   0.429
 4820SOL    HW118254   1.067   8.145   0.525
 4820SOL    HW218255   0.956   8.098   0.415
 4821SOL     OW18256   0.076   8.259   0.789
 4821SOL    HW118257   0.175   8.247   0.798
 4821SOL    HW218258   0.052   8.354   0.810
 4822SOL     OW18259   0.130   9.269   1.571
 4822SOL    HW118260   0.120   9.254   1.670
 4822SOL    HW218261   0.044   9.305   1.535
 4823SOL     OW18262   0.865   7.796   0.195
 4823SOL    HW118263   0.924   7.859   0.146
 4823SOL    HW218264   0.884   7.702   0.166
 4824SOL     OW18265   1.719   8.033   1.831
 4824SOL    HW118266   1.693   8.122   1.795
 4824SOL    HW218267   1.717   7.965   1.758
 4825SOL     OW18268   1.362   8.592   0.545
 4825SOL    HW118269   1.445   8.563   0.497
 4825SOL    HW218270   1.313   8.659   0.489
 4826SOL     OW18271   0.550   7.644   0.885
 4826SOL    HW118272   0.545   7.639   0.985
 4826SOL    HW218273   0.552   7.740   0.856
 4827SOL     OW18274   1.008   8.904   0.477
 4827SOL    HW118275   0.962   8.976   0.425
 4827SOL    HW218276   1.004   8.924   0.575
 4828SOL     OW18277   0.351   9.249   0.853
 4828SOL    HW118278   0.401   9.163   0.859
 4828SOL    HW218279   0.416   9.326   0.850
 4829SOL     OW18280   1.795   8.514   0.873
 4829SOL    HW118281   1.733   8.499   0.797
 4829SOL    HW218282   1.743   8.525   0.958
 4830SOL     OW18283   1.227   8.998   1.506
 4830SOL    HW118284   1.233   8.921   1.570
 4830SOL    HW218285   1.175   8.972   1.426
 4831SOL     OW18286   0.321   8.391   0.242
 4831SOL    HW118287   0.403   8.430   0.200
 4831SOL    HW218288   0.294   8.309   0.193
 4832SOL     OW18289   1.458   8.183   0.728
 4832SOL    HW118290   1.453   8.118   0.803
 4832SOL    HW218291   1.538   8.242   0.741
 4833SOL     OW18292   1.111   9.224   0.237
 4833SOL    HW118293   1.051   9.162   0.287
 4833SOL    HW218294   1.142   9.180   0.152
 4834SOL     OW18295   0.202   7.733   1.498
 4834SOL    HW118296   0.122   7.793   1.485
 4834SOL    HW218297   0.192   7.684   1.584
 4835SOL     OW18298   1.632   8.825   0.081
 4835SOL    HW118299   1.600   8.919   0.071
 4835SOL    HW218300   1.556   8.762   0.069
 4836SOL     OW18301   0.464   9.191   0.323
 4836SOL    HW118302   0.497   9.230   0.409
 4836SOL    HW218303   0.540   9.184   0.258
 4837SOL     OW18304   1.400   7.555   0.426
 4837SOL    HW118305   1.376   7.518   0.336
 4837SOL    HW218306   1.499   7.571   0.430
 4838SOL     OW18307   0.940   9.146   0.904
 4838SOL    HW118308   1.020   9.089   0.925
 4838SOL    HW218309   0.891   9.106   0.827
 4839SOL     OW18310   0.382   8.148   0.480
 4839SOL    HW118311   0.427   8.058   0.477
 4839SOL    HW218312   0.288   8.137   0.513
 4840SOL     OW18313   1.547   7.670   1.729
 4840SOL    HW118314   1.542   7.707   1.821
 4840SOL    HW218315   1.475   7.601   1.717
 4841SOL     OW18316   0.614   7.570   0.117
 4841SOL    HW118317   0.712   7.548   0.124
 4841SOL    HW218318   0.583   7.553   0.024
 4842SOL     OW18319   0.781   7.712   1.749
 4842SOL    HW118320   0.848   7.651   1.792
 4842SOL    HW218321   0.708   7.731   1.814
 4843SOL     OW18322   1.351   8.038   1.433
 4843SOL    HW118323   1.379   7.995   1.518
 4843SOL    HW218324   1.376   8.134   1.434
 4844SOL     OW18325   0.803   8.850   0.924
 4844SOL    HW118326   0.893   8.864   0.882
 4844SOL    HW218327   0.732   8.852   0.853
 4845SOL     OW18328   0.922   7.951   0.899
 4845SOL    HW118329   0.897   7.942   0.803
 4845SOL    HW218330   0.970   7.869   0.930
 4846SOL     OW18331   0.539   7.512   0.512
 4846SOL    HW118332   0.458   7.513   0.570
 4846SOL    HW218333   0.542   7.595   0.457
 4847SOL     OW18334   1.434   8.636   0.041
 4847SOL    HW118335   1.466   8.560   0.098
 4847SOL    HW218336   1.342   8.663   0.071
 4848SOL     OW18337   0.935   7.684   0.480
 4848SOL    HW118338   0.887   7.725   0.402
 4848SOL    HW218339   1.034   7.682   0.461
 4849SOL     OW18340   1.076   8.131   1.464
 4849SOL    HW118341   0.996   8.070   1.467
 4849SOL    HW218342   1.157   8.078   1.440
 4850SOL     OW18343   1.227   9.018   0.793
 4850SOL    HW118344   1.248   9.092   0.728
 4850SOL    HW218345   1.295   9.018   0.866
 4851SOL     OW18346   0.459   8.600   0.741
 4851SOL    HW118347   0.388   8.573   0.806
 4851SOL    HW218348   0.433   8.572   0.648
 4852SOL     OW18349   1.271   9.245   0.591
 4852SOL    HW118350   1.315   9.309   0.527
 4852SOL    HW218351   1.221   9.297   0.661
 4853SOL     OW18352   1.032   7.997   0.016
 4853SOL    HW118353   0.991   8.079  -0.023
 4853SOL    HW218354   1.096   8.023   0.089
 4854SOL     OW18355   0.078   8.004   1.386
 4854SOL    HW118356   0.170   8.003   1.345
 4854SOL    HW218357   0.072   8.078   1.453
 4855SOL     OW18358   0.866   7.902   0.642
 4855SOL    HW118359   0.834   7.974   0.580
 4855SOL    HW218360   0.890   7.821   0.589
 4856SOL     OW18361   1.429   8.621   0.867
 4856SOL    HW118362   1.374   8.537   0.860
 4856SOL    HW218363   1.455   8.650   0.775
 4857SOL     OW18364   1.466   8.038   0.992
 4857SOL    HW118365   1.436   7.943   0.999
 4857SOL    HW218366   1.539   8.054   1.058
 4858SOL     OW18367   0.488   8.833   0.174
 4858SOL    HW118368   0.401   8.818   0.221
 4858SOL    HW218369   0.471   8.859   0.079
 4859SOL     OW18370   1.664   8.728   0.657
 4859SOL    HW118371   1.763   8.736   0.671
 4859SOL    HW218372   1.619   8.812   0.688
 4860SOL     OW18373   1.390   8.023   0.078
 4860SOL    HW118374   1.336   8.002   0.159
 4860SOL    HW218375   1.481   7.982   0.087
 4861SOL     OW18376   0.527   7.704   0.328
 4861SOL    HW118377   0.554   7.645   0.253
 4861SOL    HW218378   0.527   7.799   0.297
 4862SOL     OW18379   1.754   8.671   1.588
 4862SOL    HW118380   1.845   8.632   1.575
 4862SOL    HW218381   1.762   8.767   1.612
 4863SOL     OW18382   1.064   8.795   1.340
 4863SOL    HW118383   0.984   8.772   1.395
 4863SOL    HW218384   1.147   8.769   1.389
 4864SOL     OW18385   1.592   9.077   1.625
 4864SOL    HW118386   1.619   9.111   1.535
 4864SOL    HW218387   1.671   9.039   1.671
 4865SOL     OW18388   1.111   8.643   1.100
 4865SOL    HW118389   1.071   8.687   1.181
 4865SOL    HW218390   1.070   8.680   1.017
 4866SOL     OW18391   1.638   8.547   1.079
 4866SOL    HW118392   1.643   8.628   1.138
 4866SOL    HW218393   1.552   8.549   1.028
 4867SOL     OW18394   0.915   7.537   1.402
 4867SOL    HW118395   0.940   7.517   1.307
 4867SOL    HW218396   0.987   7.593   1.444
 4868SOL     OW18397   0.705   8.498   0.368
 4868SOL    HW118398   0.691   8.505   0.467
 4868SOL    HW218399   0.789   8.447   0.350
 4869SOL     OW18400   0.410   8.261   1.251
 4869SOL    HW118401   0.496   8.273   1.301
 4869SOL    HW218402   0.368   8.174   1.278
 4870SOL     OW18403   1.274   7.834   1.262
 4870SOL    HW118404   1.295   7.908   1.326
 4870SOL    HW218405   1.185   7.851   1.219
 4871SOL     OW18406   0.367   8.548   0.501
 4871SOL    HW118407   0.360   8.631   0.445
 4871SOL    HW218408   0.371   8.468   0.441
 4872SOL     OW18409   0.566   7.985   0.865
 4872SOL    HW118410   0.578   8.051   0.791
 4872SOL    HW218411   0.612   8.019   0.948
 4873SOL     OW18412   1.252   8.796   0.388
 4873SOL    HW118413   1.302   8.873   0.428
 4873SOL    HW218414   1.157   8.798   0.420
 4874SOL     OW18415   1.272   8.893   1.142
 4874SOL    HW118416   1.319   8.906   1.229
 4874SOL    HW218417   1.206   8.819   1.151
 4875SOL     OW18418   1.582   8.087   0.472
 4875SOL    HW118419   1.551   8.148   0.545
 4875SOL    HW218420   1.632   8.139   0.403
 4876SOL     OW18421   0.402   8.199   1.598
 4876SOL    HW118422   0.470   8.254   1.551
 4876SOL    HW218423   0.442   8.111   1.625
 4877SOL     OW18424   1.587   8.227   1.670
 4877SOL    HW118425   1.495   8.265   1.665
 4877SOL    HW218426   1.647   8.274   1.605
 4878SOL     OW18427   1.013   7.553   1.770
 4878SOL    HW118428   1.019   7.638   1.718
 4878SOL    HW218429   1.045   7.477   1.713
 4879SOL     OW18430   0.573   8.318   1.029
 4879SOL    HW118431   0.617   8.407   1.020
 4879SOL    HW218432   0.510   8.318   1.106
 4880SOL     OW18433   1.360   8.310   1.045
 4880SOL    HW118434   1.285   8.310   0.979
 4880SOL    HW218435   1.397   8.218   1.054
 4881SOL     OW18436   1.209   7.973   0.275
 4881SOL    HW118437   1.222   7.889   0.329
 4881SOL    HW218438   1.180   8.047   0.335
 4882SOL     OW18439   0.307   7.661   1.231
 4882SOL    HW118440   0.284   7.698   1.321
 4882SOL    HW218441   0.277   7.566   1.225
 4883SOL     OW18442   0.037   8.758   1.282
 4883SOL    HW118443   0.090   8.709   1.350
 4883SOL    HW218444   0.059   8.856   1.287
 4884SOL     OW18445   0.732   8.082   1.064
 4884SOL    HW118446   0.791   8.056   0.988
 4884SOL    HW218447   0.704   8.178   1.053
 4885SOL     OW18448   1.728   8.383   1.854
 4885SOL    HW118449   1.682   8.376   1.765
 4885SOL    HW218450   1.666   8.427   1.920
 4886SOL     OW18451   0.307   7.511   0.618
 4886SOL    HW118452   0.296   7.605   0.651
 4886SOL    HW218453   0.302   7.448   0.695
 4887SOL     OW18454   1.622   7.815   0.374
 4887SOL    HW118455   1.624   7.739   0.438
 4887SOL    HW218456   1.574   7.892   0.414
 4888SOL     OW18457   1.023   8.214   0.966
 4888SOL    HW118458   1.038   8.235   1.062
 4888SOL    HW218459   0.993   8.119   0.957
 4889SOL     OW18460   0.980   9.021   1.700
 4889SOL    HW118461   0.960   9.065   1.612
 4889SOL    HW218462   1.019   8.930   1.684
 4890SOL     OW18463   1.859   8.966   1.605
 4890SOL    HW118464   1.873   8.993   1.510
 4890SOL    HW218465   1.942   8.988   1.658
 4891SOL     OW18466   1.540   7.722   0.125
 4891SOL    HW118467   1.479   7.647   0.148
 4891SOL    HW218468   1.562   7.774   0.208
 4892SOL     OW18469   1.303   8.286   0.042
 4892SOL    HW118470   1.337   8.193   0.057
 4892SOL    HW218471   1.321   8.313  -0.053
 4893SOL     OW18472   1.068   8.781   0.849
 4893SOL    HW118473   1.075   8.697   0.794
 4893SOL    HW218474   1.130   8.850   0.813
 4894SOL     OW18475   0.319   8.258   0.949
 4894SOL    HW118476   0.412   8.294   0.954
 4894SOL    HW218477   0.313   8.173   1.001
 4895SOL     OW18478   0.339   7.957   1.006
 4895SOL    HW118479   0.287   7.874   0.989
 4895SOL    HW218480   0.416   7.962   0.942
 4896SOL     OW18481   1.138   7.828   1.678
 4896SOL    HW118482   1.093   7.891   1.742
 4896SOL    HW218483   1.231   7.859   1.661
 4897SOL     OW18484   1.160   7.655   1.477
 4897SOL    HW118485   1.160   7.719   1.554
 4897SOL    HW218486   1.188   7.703   1.394
 4898SOL     OW18487   0.008   8.774   0.200
 4898SOL    HW118488  -0.085   8.795   0.169
 4898SOL    HW218489   0.018   8.675   0.213
 4899SOL     OW18490   0.504   9.016   0.910
 4899SOL    HW118491   0.570   9.090   0.919
 4899SOL    HW218492   0.548   8.937   0.868
 4900SOL     OW18493   1.002   8.244   1.238
 4900SOL    HW118494   1.043   8.212   1.324
 4900SOL    HW218495   0.906   8.217   1.235
 4901SOL     OW18496   0.040   7.992   1.114
 4901SOL    HW118497   0.125   7.959   1.073
 4901SOL    HW218498   0.053   8.007   1.212
 4902SOL     OW18499   1.369   8.398   1.660
 4902SOL    HW118500   1.408   8.487   1.680
 4902SOL    HW218501   1.379   8.378   1.563
 4903SOL     OW18502   0.815   8.020   0.325
 4903SOL    HW118503   0.822   7.931   0.279
 4903SOL    HW218504   0.721   8.054   0.317
 4904SOL     OW18505   1.657   8.052   1.206
 4904SOL    HW118506   1.619   7.983   1.268
 4904SOL    HW218507   1.739   8.016   1.162
 4905SOL     OW18508   0.252   9.012   1.744
 4905SOL    HW118509   0.222   9.069   1.820
 4905SOL    HW218510   0.245   8.915   1.770
 4906SOL     OW18511   0.671   7.912   1.269
 4906SOL    HW118512   0.637   7.823   1.239
 4906SOL    HW218513   0.697   7.966   1.189
 4907SOL     OW18514   0.473   7.948   0.191
 4907SOL    HW118515   0.534   8.028   0.195
 4907SOL    HW218516   0.378   7.979   0.198
 4908SOL     OW18517   0.159   8.585   1.466
 4908SOL    HW118518   0.181   8.524   1.542
 4908SOL    HW218519   0.169   8.536   1.380
 4909SOL     OW18520   1.347   8.507   1.234
 4909SOL    HW118521   1.371   8.444   1.160
 4909SOL    HW218522   1.257   8.547   1.216
 4910SOL     OW18523   1.302   8.303   0.309
 4910SOL    HW118524   1.216   8.272   0.351
 4910SOL    HW218525   1.298   8.289   0.210
 4911SOL     OW18526   1.759   9.195   1.154
 4911SOL    HW118527   1.820   9.225   1.081
 4911SOL    HW218528   1.721   9.106   1.132
 4912SOL     OW18529   1.252   9.179   1.128
 4912SOL    HW118530   1.336   9.184   1.074
 4912SOL    HW218531   1.229   9.083   1.146
 4913SOL     OW18532   0.903   7.534   0.133
 4913SOL    HW118533   0.954   7.535   0.047
 4913SOL    HW218534   0.959   7.492   0.204
 4914SOL     OW18535   1.726   7.583   0.523
 4914SOL    HW118536   1.799   7.566   0.456
 4914SOL    HW218537   1.695   7.496   0.561
 4915SOL     OW18538   1.388   9.021   0.477
 4915SOL    HW118539   1.455   9.033   0.403
 4915SOL    HW218540   1.348   9.110   0.500
 4916SOL     OW18541   0.130   9.242   1.851
 4916SOL    HW118542   0.089   9.168   1.904
 4916SOL    HW218543   0.194   9.293   1.909
 4917SOL     OW18544   1.280   8.375   0.672
 4917SOL    HW118545   1.340   8.294   0.674
 4917SOL    HW218546   1.320   8.444   0.612
 4918SOL     OW18547   0.830   8.721   1.422
 4918SOL    HW118548   0.825   8.754   1.517
 4918SOL    HW218549   0.744   8.740   1.376
 4919SOL     OW18550   0.672   9.064   0.154
 4919SOL    HW118551   0.681   9.074   0.055
 4919SOL    HW218552   0.632   8.975   0.175
 4920SOL     OW18553   1.650   9.168   1.394
 4920SOL    HW118554   1.703   9.178   1.310
 4920SOL    HW218555   1.623   9.258   1.428
 4921SOL     OW18556   0.263   7.774   0.720
 4921SOL    HW118557   0.184   7.825   0.686
 4921SOL    HW218558   0.254   7.759   0.818
 4922SOL     OW18559   1.194   9.060   0.031
 4922SOL    HW118560   1.200   8.967   0.068
 4922SOL    HW218561   1.135   9.060  -0.049
 4923SOL     OW18562   0.822   8.450   1.372
 4923SOL    HW118563   0.862   8.449   1.280
 4923SOL    HW218564   0.832   8.542   1.412
 4924SOL     OW18565   0.916   8.358   0.291
 4924SOL    HW118566   0.979   8.396   0.223
 4924SOL    HW218567   0.956   8.275   0.330
 4925SOL     OW18568   1.504   9.055   0.044
 4925SOL    HW118569   1.412   9.092   0.051
 4925SOL    HW218570   1.542   9.075  -0.046
 4926SOL     OW18571   0.372   8.736   1.490
 4926SOL    HW118572   0.359   8.829   1.456
 4926SOL    HW218573   0.288   8.684   1.477
 4927SOL     OW18574   1.614   8.740   1.289
 4927SOL    HW118575   1.674   8.743   1.369
 4927SOL    HW218576   1.539   8.804   1.302
 4928SOL     OW18577   1.039   8.546   0.696
 4928SOL    HW118578   0.969   8.499   0.750
 4928SOL    HW218579   1.098   8.478   0.653
 4929SOL     OW18580   1.014   7.684   0.971
 4929SOL    HW118581   1.006   7.648   0.878
 4929SOL    HW218582   1.012   7.608   1.036
 4930SOL     OW18583   0.590   8.935   0.491
 4930SOL    HW118584   0.632   8.877   0.421
 4930SOL    HW218585   0.546   9.014   0.447
 4931SOL     OW18586   0.255   8.796   0.290
 4931SOL    HW118587   0.159   8.797   0.263
 4931SOL    HW218588   0.267   8.849   0.374
 4932SOL     OW18589   0.105   8.461   1.726
 4932SOL    HW118590   0.028   8.428   1.780
 4932SOL    HW218591   0.190   8.431   1.768
 4933SOL     OW18592   0.672   7.651   1.489
 4933SOL    HW118593   0.762   7.635   1.449
 4933SOL    HW218594   0.680   7.656   1.588
 4934SOL     OW18595   0.075   7.793   0.033
 4934SOL    HW118596  -0.017   7.765   0.004
 4934SOL    HW218597   0.106   7.870  -0.023
 4935SOL     OW18598   1.440   8.304   1.398
 4935SOL    HW118599   1.383   8.356   1.335
 4935SOL    HW218600   1.536   8.316   1.374
 4936SOL     OW18601   0.072   7.614   0.318
 4936SOL    HW118602   0.055   7.697   0.264
 4936SOL    HW218603   0.162   7.577   0.296
 4937SOL     OW18604   1.183   8.783   0.119
 4937SOL    HW118605   1.084   8.772   0.121
 4937SOL    HW218606   1.217   8.798   0.212
 4938SOL     OW18607   0.613   8.290   1.431
 4938SOL    HW118608   0.669   8.371   1.414
 4938SOL    HW218609   0.672   8.210   1.434
 4939SOL     OW18610   1.493   9.215   0.959
 4939SOL    HW118611   1.526   9.279   0.890
 4939SOL    HW218612   1.559   9.209   1.034
 4940SOL     OW18613   0.716   8.013   1.708
 4940SOL    HW118614   0.735   8.078   1.782
 4940SOL    HW218615   0.776   7.933   1.717
 4941SOL     OW18616   1.450   8.668   1.633
 4941SOL    HW118617   1.441   8.658   1.732
 4941SOL    HW218618   1.546   8.661   1.607
 4942SOL     OW18619   0.390   9.189   1.560
 4942SOL    HW118620   0.299   9.230   1.558
 4942SOL    HW218621   0.383   9.095   1.592
 4943SOL     OW18622   1.674   8.331   1.254
 4943SOL    HW118623   1.647   8.242   1.217
 4943SOL    HW218624   1.675   8.399   1.181
 4944SOL     OW18625   1.225   7.773   0.449
 4944SOL    HW118626   1.290   7.699   0.438
 4944SOL    HW218627   1.245   7.823   0.533
 4945SOL     OW18628   0.594   8.193   0.652
 4945SOL    HW118629   0.644   8.278   0.633
 4945SOL    HW218630   0.506   8.195   0.604
 4946SOL     OW18631   1.777   7.790   1.642
 4946SOL    HW118632   1.760   7.821   1.548
 4946SOL    HW218633   1.693   7.753   1.680
 4947SOL     OW18634   1.730   8.382   1.517
 4947SOL    HW118635   1.768   8.473   1.532
 4947SOL    HW218636   1.722   8.365   1.418
 4948SOL     OW18637   0.859   8.822   0.016
 4948SOL    HW118638   0.813   8.837   0.104
 4948SOL    HW218639   0.903   8.907  -0.014
 4949SOL     OW18640   0.661   9.238   0.953
 4949SOL    HW118641   0.615   9.326   0.940
 4949SOL    HW218642   0.760   9.250   0.946
 4950SOL     OW18643   0.859   8.404   0.861
 4950SOL    HW118644   0.913   8.335   0.909
 4950SOL    HW218645   0.827   8.473   0.927
 4951SOL     OW18646   1.083   8.432   0.087
 4951SOL    HW118647   1.060   8.485   0.005
 4951SOL    HW218648   1.164   8.376   0.068
 4952SOL     OW18649   1.861   9.017   0.851
 4952SOL    HW118650   1.790   9.005   0.781
 4952SOL    HW218651   1.862   8.938   0.911
 4953SOL     OW18652   0.221   8.762   1.844
 4953SOL    HW118653   0.156   8.689   1.823
 4953SOL    HW218654   0.225   8.776   1.942
 4954SOL     OW18655   0.079   8.688   0.653
 4954SOL    HW118656   0.078   8.641   0.741
 4954SOL    HW218657   0.161   8.660   0.602
 4955SOL     OW18658   0.428   7.872   0.520
 4955SOL    HW118659   0.458   7.800   0.458
 4955SOL    HW218660   0.389   7.832   0.603
 4956SOL     OW18661   1.705   8.935   1.104
 4956SOL    HW118662   1.612   8.910   1.077
 4956SOL    HW218663   1.731   8.885   1.186
 4957SOL     OW18664   0.317   7.995   1.280
 4957SOL    HW118665   0.355   7.936   1.352
 4957SOL    HW218666   0.357   7.969   1.192
 4958SOL     OW18667   0.812   9.034   0.687
 4958SOL    HW118668   0.844   9.044   0.593
 4958SOL    HW218669   0.733   8.972   0.689
 4959SOL     OW18670   1.424   7.662   1.112
 4959SOL    HW118671   1.476   7.597   1.167
 4959SOL    HW218672   1.375   7.725   1.173
 4960SOL     OW18673   1.001   7.482   1.154
 4960SOL    HW118674   0.938   7.410   1.123
 4960SOL    HW218675   1.094   7.446   1.154
 4961SOL     OW18676   0.770   8.778   0.301
 4961SOL    HW118677   0.724   8.691   0.318
 4961SOL    HW218678   0.861   8.775   0.342
 4962SOL     OW18679   1.352   7.500   0.168
 4962SOL    HW118680   1.387   7.459   0.084
 4962SOL    HW218681   1.262   7.462   0.188
 4963SOL     OW18682   1.300   7.901   0.691
 4963SOL    HW118683   1.241   7.981   0.695
 4963SOL    HW218684   1.315   7.866   0.784
 4964SOL     OW18685   1.593   7.669   0.882
 4964SOL    HW118686   1.509   7.668   0.936
 4964SOL    HW218687   1.595   7.752   0.826
 4965SOL     OW18688   0.039   8.525   0.300
 4965SOL    HW118689   0.138   8.514   0.291
 4965SOL    HW218690  -0.001   8.439   0.332
 4966SOL     OW18691   0.875   9.094   0.337
 4966SOL    HW118692   0.798   9.059   0.283
 4966SOL    HW218693   0.843   9.165   0.399
 4967SOL     OW18694   0.225   7.723   2.858
 4967SOL    HW118695   0.260   7.706   2.950
 4967SOL    HW218696   0.137   7.678   2.846
 4968SOL     OW18697   0.019   7.816   2.509
 4968SOL    HW118698  -0.063   7.859   2.548
 4968SOL    HW218699  -0.009   7.743   2.446
 4969SOL     OW18700   0.569   8.723   3.027
 4969SOL    HW118701   0.476   8.716   2.990
 4969SOL    HW218702   0.580   8.812   3.071
 4970SOL     OW18703   1.555   8.959   2.565
 4970SOL    HW118704   1.498   8.943   2.646
 4970SOL    HW218705   1.496   8.969   2.485
 4971SOL     OW18706   1.135   8.151   2.579
 4971SOL    HW118707   1.192   8.229   2.554
 4971SOL    HW218708   1.075   8.177   2.655
 4972SOL     OW18709   1.755   8.055   2.093
 4972SOL    HW118710   1.743   8.042   1.994
 4972SOL    HW218711   1.725   7.974   2.142
 4973SOL     OW18712   0.768   8.592   2.885
 4973SOL    HW118713   0.690   8.609   2.945
 4973SOL    HW218714   0.802   8.679   2.849
 4974SOL     OW18715   0.685   8.460   2.527
 4974SOL    HW118716   0.754   8.444   2.597
 4974SOL    HW218717   0.612   8.517   2.565
 4975SOL     OW18718   0.686   8.609   3.665
 4975SOL    HW118719   0.746   8.688   3.679
 4975SOL    HW218720   0.600   8.640   3.624
 4976SOL     OW18721   0.335   8.883   2.923
 4976SOL    HW118722   0.257   8.852   2.870
 4976SOL    HW218723   0.393   8.941   2.866
 4977SOL     OW18724   1.460   8.953   3.201
 4977SOL    HW118725   1.484   9.047   3.227
 4977SOL    HW218726   1.444   8.899   3.283
 4978SOL     OW18727   0.438   7.840   3.361
 4978SOL    HW118728   0.520   7.784   3.370
 4978SOL    HW218729   0.357   7.782   3.365
 4979SOL     OW18730   1.603   7.895   2.599
 4979SOL    HW118731   1.529   7.941   2.549
 4979SOL    HW218732   1.654   7.963   2.652
 4980SOL     OW18733   0.231   9.161   2.345
 4980SOL    HW118734   0.265   9.238   2.399
 4980SOL    HW218735   0.275   9.161   2.255
 4981SOL     OW18736   1.127   8.789   3.552
 4981SOL    HW118737   1.174   8.789   3.640
 4981SOL    HW218738   1.079   8.702   3.541
 4982SOL     OW18739   0.230   8.882   2.400
 4982SOL    HW118740   0.204   8.978   2.400
 4982SOL    HW218741   0.159   8.828   2.445
 4983SOL     OW18742   0.240   8.539   2.748
 4983SOL    HW118743   0.254   8.455   2.800
 4983SOL    HW218744   0.185   8.603   2.803
 4984SOL     OW18745   0.620   9.234   3.301
 4984SOL    HW118746   0.528   9.217   3.336
 4984SOL    HW218747   0.648   9.326   3.327
 4985SOL     OW18748   1.594   7.562   3.342
 4985SOL    HW118749   1.576   7.629   3.270
 4985SOL    HW218750   1.591   7.608   3.431
 4986SOL     OW18751   0.122   8.091   2.425
 4986SOL    HW118752   0.077   8.003   2.442
 4986SOL    HW218753   0.121   8.145   2.509
 4987SOL     OW18754   1.842   9.215   2.221
 4987SOL    HW118755   1.896   9.186   2.301
 4987SOL    HW218756   1.872   9.305   2.192
 4988SOL     OW18757   0.027   9.044   1.979
 4988SOL    HW118758   0.008   8.948   2.000
 4988SOL    HW218759  -0.006   9.102   2.054
 4989SOL     OW18760   1.689   8.370   2.474
 4989SOL    HW118761   1.784   8.341   2.482
 4989SOL    HW218762   1.681   8.435   2.399
 4990SOL     OW18763   1.641   8.556   2.294
 4990SOL    HW118764   1.727   8.558   2.242
 4990SOL    HW218765   1.655   8.603   2.382
 4991SOL     OW18766   0.113   8.185   3.459
 4991SOL    HW118767   0.201   8.172   3.504
 4991SOL    HW218768   0.100   8.282   3.437
 4992SOL     OW18769   0.613   8.813   2.588
 4992SOL    HW118770   0.564   8.726   2.597
 4992SOL    HW218771   0.590   8.856   2.501
 4993SOL     OW18772   1.293   8.676   3.285
 4993SOL    HW118773   1.330   8.603   3.227
 4993SOL    HW218774   1.345   8.681   3.370
 4994SOL     OW18775   0.197   8.424   3.126
 4994SOL    HW118776   0.286   8.379   3.112
 4994SOL    HW218777   0.124   8.359   3.107
 4995SOL     OW18778   1.525   8.447   2.052
 4995SOL    HW118779   1.462   8.371   2.065
 4995SOL    HW218780   1.573   8.465   2.138
 4996SOL     OW18781   1.187   9.240   3.478
 4996SOL    HW118782   1.211   9.300   3.402
 4996SOL    HW218783   1.194   9.145   3.448
 4997SOL     OW18784   0.317   7.699   3.663
 4997SOL    HW118785   0.388   7.770   3.669
 4997SOL    HW218786   0.229   7.738   3.691
 4998SOL     OW18787   1.466   8.865   2.815
 4998SOL    HW118788   1.407   8.871   2.895
 4998SOL    HW218789   1.451   8.777   2.769
 4999SOL     OW18790   1.667   9.162   2.434
 4999SOL    HW118791   1.626   9.139   2.346
 4999SOL    HW218792   1.649   9.088   2.499
 5000SOL     OW18793   0.598   8.177   2.132
 5000SOL    HW118794   0.622   8.246   2.064
 5000SOL    HW218795   0.520   8.210   2.186
 5001SOL     OW18796   1.281   7.793   2.806
 5001SOL    HW118797   1.195   7.743   2.793
 5001SOL    HW218798   1.343   7.739   2.862
 5002SOL     OW18799   1.576   9.110   2.169
 5002SOL    HW118800   1.665   9.156   2.172
 5002SOL    HW218801   1.555   9.086   2.074
 5003SOL     OW18802   0.807   8.053   3.327
 5003SOL    HW118803   0.760   8.050   3.416
 5003SOL    HW218804   0.756   7.998   3.261
 5004SOL     OW18805   1.394   7.917   3.536
 5004SOL    HW118806   1.374   7.960   3.624
 5004SOL    HW218807   1.472   7.855   3.545
 5005SOL     OW18808   0.973   8.338   3.434
 5005SOL    HW118809   1.019   8.254   3.405
 5005SOL    HW218810   0.917   8.372   3.359
 5006SOL     OW18811   0.991   7.858   3.104
 5006SOL    HW118812   0.914   7.892   3.158
 5006SOL    HW218813   0.957   7.807   3.025
 5007SOL     OW18814   1.041   8.149   2.291
 5007SOL    HW118815   1.067   8.145   2.387
 5007SOL    HW218816   0.956   8.098   2.277
 5008SOL     OW18817   0.076   8.259   2.651
 5008SOL    HW118818   0.175   8.247   2.660
 5008SOL    HW218819   0.052   8.354   2.672
 5009SOL     OW18820   0.130   9.269   3.433
 5009SOL    HW118821   0.120   9.254   3.532
 5009SOL    HW218822   0.044   9.305   3.397
 5010SOL     OW18823   0.865   7.796   2.057
 5010SOL    HW118824   0.924   7.859   2.008
 5010SOL    HW218825   0.884   7.702   2.028
 5011SOL     OW18826   1.719   8.033   3.693
 5011SOL    HW118827   1.693   8.122   3.657
 5011SOL    HW218828   1.717   7.965   3.620
 5012SOL     OW18829   1.362   8.592   2.407
 5012SOL    HW118830   1.445   8.563   2.359
 5012SOL    HW218831   1.313   8.659   2.351
 5013SOL     OW18832   0.550   7.644   2.747
 5013SOL    HW118833   0.545   7.639   2.847
 5013SOL    HW218834   0.552   7.740   2.718
 5014SOL     OW18835   1.008   8.904   2.339
 5014SOL    HW118836   0.962   8.976   2.287
 5014SOL    HW218837   1.004   8.924   2.437
 5015SOL     OW18838   0.351   9.249   2.715
 5015SOL    HW118839   0.401   9.163   2.721
 5015SOL    HW218840   0.416   9.326   2.712
 5016SOL     OW18841   1.795   8.514   2.735
 5016SOL    HW118842   1.733   8.499   2.659
 5016SOL    HW218843   1.743   8.525   2.820
 5017SOL     OW18844   1.227   8.998   3.368
 5017SOL    HW118845   1.233   8.921   3.432
 5017SOL    HW218846   1.175   8.972   3.288
 5018SOL     OW18847   1.458   8.183   2.590
 5018SOL    HW118848   1.453   8.118   2.665
 5018SOL    HW218849   1.538   8.242   2.603
 5019SOL     OW18850   0.461   8.714   3.589
 5019SOL    HW118851   0.411   8.715   3.503
 5019SOL    HW218852   0.398   8.696   3.665
 5020SOL     OW18853   0.202   7.733   3.360
 5020SOL    HW118854   0.122   7.793   3.347
 5020SOL    HW218855   0.192   7.684   3.446
 5021SOL     OW18856   1.632   8.825   1.943
 5021SOL    HW118857   1.600   8.919   1.933
 5021SOL    HW218858   1.556   8.762   1.931
 5022SOL     OW18859   0.464   9.191   2.185
 5022SOL    HW118860   0.497   9.230   2.271
 5022SOL    HW218861   0.540   9.184   2.120
 5023SOL     OW18862   1.400   7.555   2.288
 5023SOL    HW118863   1.376   7.518   2.198
 5023SOL    HW218864   1.499   7.571   2.292
 5024SOL     OW18865   0.249   9.233   3.103
 5024SOL    HW118866   0.306   9.168   3.153
 5024SOL    HW218867   0.233   9.200   3.010
 5025SOL     OW18868   0.940   9.146   2.766
 5025SOL    HW118869   1.020   9.089   2.787
 5025SOL    HW218870   0.891   9.106   2.689
 5026SOL     OW18871   1.547   7.670   3.591
 5026SOL    HW118872   1.542   7.707   3.683
 5026SOL    HW218873   1.475   7.601   3.579
 5027SOL     OW18874   0.781   7.712   3.611
 5027SOL    HW118875   0.848   7.651   3.654
 5027SOL    HW218876   0.708   7.731   3.676
 5028SOL     OW18877   0.888   8.962   3.057
 5028SOL    HW118878   0.865   8.937   2.963
 5028SOL    HW218879   0.949   8.893   3.096
 5029SOL     OW18880   1.351   8.038   3.295
 5029SOL    HW118881   1.379   7.995   3.380
 5029SOL    HW218882   1.376   8.134   3.296
 5030SOL     OW18883   0.803   8.850   2.786
 5030SOL    HW118884   0.893   8.864   2.744
 5030SOL    HW218885   0.732   8.852   2.715
 5031SOL     OW18886   0.922   7.951   2.761
 5031SOL    HW118887   0.897   7.942   2.665
 5031SOL    HW218888   0.970   7.869   2.792
 5032SOL     OW18889   0.539   7.512   2.374
 5032SOL    HW118890   0.458   7.513   2.432
 5032SOL    HW218891   0.542   7.595   2.319
 5033SOL     OW18892   1.434   8.636   1.903
 5033SOL    HW118893   1.466   8.560   1.960
 5033SOL    HW218894   1.342   8.663   1.933
 5034SOL     OW18895   0.935   7.684   2.342
 5034SOL    HW118896   0.887   7.725   2.264
 5034SOL    HW218897   1.034   7.682   2.323
 5035SOL     OW18898   1.076   8.131   3.326
 5035SOL    HW118899   0.996   8.070   3.329
 5035SOL    HW218900   1.157   8.078   3.302
 5036SOL     OW18901   1.227   9.018   2.655
 5036SOL    HW118902   1.248   9.092   2.590
 5036SOL    HW218903   1.295   9.018   2.728
 5037SOL     OW18904   0.459   8.600   2.603
 5037SOL    HW118905   0.388   8.573   2.668
 5037SOL    HW218906   0.433   8.572   2.510
 5038SOL     OW18907   1.271   9.245   2.453
 5038SOL    HW118908   1.315   9.309   2.389
 5038SOL    HW218909   1.221   9.297   2.523
 5039SOL     OW18910   1.032   7.997   1.878
 5039SOL    HW118911   0.991   8.079   1.839
 5039SOL    HW218912   1.096   8.023   1.951
 5040SOL     OW18913   0.078   8.004   3.248
 5040SOL    HW118914   0.170   8.003   3.207
 5040SOL    HW218915   0.072   8.078   3.315
 5041SOL     OW18916   0.561   7.670   3.009
 5041SOL    HW118917   0.599   7.586   3.046
 5041SOL    HW218918   0.473   7.689   3.053
 5042SOL     OW18919   0.866   7.902   2.504
 5042SOL    HW118920   0.834   7.974   2.442
 5042SOL    HW218921   0.890   7.821   2.451
 5043SOL     OW18922   1.017   7.487   2.615
 5043SOL    HW118923   0.945   7.492   2.546
 5043SOL    HW218924   0.993   7.418   2.684
 5044SOL     OW18925   1.429   8.621   2.729
 5044SOL    HW118926   1.374   8.537   2.722
 5044SOL    HW218927   1.455   8.650   2.637
 5045SOL     OW18928   1.466   8.038   2.854
 5045SOL    HW118929   1.436   7.943   2.861
 5045SOL    HW218930   1.539   8.054   2.920
 5046SOL     OW18931   1.857   8.281   2.239
 5046SOL    HW118932   1.899   8.217   2.303
 5046SOL    HW218933   1.819   8.230   2.161
 5047SOL     OW18934   1.664   8.728   2.519
 5047SOL    HW118935   1.763   8.736   2.533
 5047SOL    HW218936   1.619   8.812   2.550
 5048SOL     OW18937   1.390   8.023   1.940
 5048SOL    HW118938   1.336   8.002   2.021
 5048SOL    HW218939   1.481   7.982   1.949
 5049SOL     OW18940   0.527   7.704   2.190
 5049SOL    HW118941   0.554   7.645   2.115
 5049SOL    HW218942   0.527   7.799   2.159
 5050SOL     OW18943   1.754   8.671   3.450
 5050SOL    HW118944   1.845   8.632   3.437
 5050SOL    HW218945   1.762   8.767   3.474
 5051SOL     OW18946   1.064   8.795   3.202
 5051SOL    HW118947   0.984   8.772   3.257
 5051SOL    HW218948   1.147   8.769   3.251
 5052SOL     OW18949   1.592   9.077   3.487
 5052SOL    HW118950   1.619   9.111   3.397
 5052SOL    HW218951   1.671   9.039   3.533
 5053SOL     OW18952   1.111   8.643   2.962
 5053SOL    HW118953   1.071   8.687   3.043
 5053SOL    HW218954   1.070   8.680   2.879
 5054SOL     OW18955   1.638   8.547   2.941
 5054SOL    HW118956   1.643   8.628   3.000
 5054SOL    HW218957   1.552   8.549   2.890
 5055SOL     OW18958   0.915   7.537   3.264
 5055SOL    HW118959   0.940   7.517   3.169
 5055SOL    HW218960   0.987   7.593   3.306
 5056SOL     OW18961   0.980   8.564   3.581
 5056SOL    HW118962   0.881   8.570   3.591
 5056SOL    HW218963   1.003   8.484   3.525
 5057SOL     OW18964   0.705   8.498   2.230
 5057SOL    HW118965   0.691   8.505   2.329
 5057SOL    HW218966   0.789   8.447   2.212
 5058SOL     OW18967   0.410   8.261   3.113
 5058SOL    HW118968   0.496   8.273   3.163
 5058SOL    HW218969   0.368   8.174   3.140
 5059SOL     OW18970   1.274   7.834   3.124
 5059SOL    HW118971   1.295   7.908   3.188
 5059SOL    HW218972   1.185   7.851   3.081
 5060SOL     OW18973   0.064   9.012   3.193
 5060SOL    HW118974   0.018   9.094   3.159
 5060SOL    HW218975   0.162   9.031   3.202
 5061SOL     OW18976   0.367   8.548   2.363
 5061SOL    HW118977   0.360   8.631   2.307
 5061SOL    HW218978   0.371   8.468   2.303
 5062SOL     OW18979   0.566   7.985   2.727
 5062SOL    HW118980   0.578   8.051   2.653
 5062SOL    HW218981   0.612   8.019   2.810
 5063SOL     OW18982   1.252   8.796   2.250
 5063SOL    HW118983   1.302   8.873   2.290
 5063SOL    HW218984   1.157   8.798   2.282
 5064SOL     OW18985   1.272   8.893   3.004
 5064SOL    HW118986   1.319   8.906   3.091
 5064SOL    HW218987   1.206   8.819   3.013
 5065SOL     OW18988   1.582   8.087   2.334
 5065SOL    HW118989   1.551   8.148   2.407
 5065SOL    HW218990   1.632   8.139   2.265
 5066SOL     OW18991   0.354   8.958   3.191
 5066SOL    HW118992   0.333   8.914   3.104
 5066SOL    HW218993   0.451   8.984   3.194
 5067SOL     OW18994   0.402   8.199   3.460
 5067SOL    HW118995   0.470   8.254   3.413
 5067SOL    HW218996   0.442   8.111   3.487
 5068SOL     OW18997   1.587   8.227   3.532
 5068SOL    HW118998   1.495   8.265   3.527
 5068SOL    HW218999   1.647   8.274   3.467
 5069SOL     OW19000   1.013   7.553   3.632
 5069SOL    HW119001   1.019   7.638   3.580
 5069SOL    HW219002   1.045   7.477   3.575
 5070SOL     OW19003   0.504   7.498   3.602
 5070SOL    HW119004   0.462   7.441   3.532
 5070SOL    HW219005   0.438   7.567   3.634
 5071SOL     OW19006   0.573   8.318   2.891
 5071SOL    HW119007   0.617   8.407   2.882
 5071SOL    HW219008   0.510   8.318   2.968
 5072SOL     OW19009   1.360   8.310   2.907
 5072SOL    HW119010   1.285   8.310   2.841
 5072SOL    HW219011   1.397   8.218   2.916
 5073SOL     OW19012   1.209   7.973   2.137
 5073SOL    HW119013   1.222   7.889   2.191
 5073SOL    HW219014   1.180   8.047   2.197
 5074SOL     OW19015   0.307   7.661   3.093
 5074SOL    HW119016   0.284   7.698   3.183
 5074SOL    HW219017   0.277   7.566   3.087
 5075SOL     OW19018   0.037   8.758   3.144
 5075SOL    HW119019   0.090   8.709   3.212
 5075SOL    HW219020   0.059   8.856   3.149
 5076SOL     OW19021   0.732   8.082   2.926
 5076SOL    HW119022   0.791   8.056   2.850
 5076SOL    HW219023   0.704   8.178   2.915
 5077SOL     OW19024   1.728   8.383   3.716
 5077SOL    HW119025   1.682   8.376   3.627
 5077SOL    HW219026   1.666   8.427   3.782
 5078SOL     OW19027   1.622   7.815   2.236
 5078SOL    HW119028   1.624   7.739   2.300
 5078SOL    HW219029   1.574   7.892   2.276
 5079SOL     OW19030   1.023   8.214   2.828
 5079SOL    HW119031   1.038   8.235   2.924
 5079SOL    HW219032   0.993   8.119   2.819
 5080SOL     OW19033   0.980   9.021   3.562
 5080SOL    HW119034   0.960   9.065   3.474
 5080SOL    HW219035   1.019   8.930   3.546
 5081SOL     OW19036   1.859   8.966   3.467
 5081SOL    HW119037   1.873   8.993   3.372
 5081SOL    HW219038   1.942   8.988   3.520
 5082SOL     OW19039   0.350   8.346   3.666
 5082SOL    HW119040   0.426   8.390   3.714
 5082SOL    HW219041   0.385   8.299   3.584
 5083SOL     OW19042   1.540   7.722   1.987
 5083SOL    HW119043   1.479   7.647   2.010
 5083SOL    HW219044   1.562   7.774   2.070
 5084SOL     OW19045   1.303   8.286   1.904
 5084SOL    HW119046   1.337   8.193   1.919
 5084SOL    HW219047   1.321   8.313   1.809
 5085SOL     OW19048   1.068   8.781   2.711
 5085SOL    HW119049   1.075   8.697   2.656
 5085SOL    HW219050   1.130   8.850   2.675
 5086SOL     OW19051   0.319   8.258   2.811
 5086SOL    HW119052   0.412   8.294   2.816
 5086SOL    HW219053   0.313   8.173   2.863
 5087SOL     OW19054   0.339   7.957   2.868
 5087SOL    HW119055   0.287   7.874   2.851
 5087SOL    HW219056   0.416   7.962   2.804
 5088SOL     OW19057   1.138   7.828   3.540
 5088SOL    HW119058   1.093   7.891   3.604
 5088SOL    HW219059   1.231   7.859   3.523
 5089SOL     OW19060   1.160   7.655   3.339
 5089SOL    HW119061   1.160   7.719   3.416
 5089SOL    HW219062   1.188   7.703   3.256
 5090SOL     OW19063   0.008   8.774   2.062
 5090SOL    HW119064  -0.085   8.795   2.031
 5090SOL    HW219065   0.018   8.675   2.075
 5091SOL     OW19066   0.088   9.249   2.789
 5091SOL    HW119067   0.046   9.163   2.762
 5091SOL    HW219068   0.182   9.252   2.755
 5092SOL     OW19069   0.504   9.016   2.772
 5092SOL    HW119070   0.570   9.090   2.781
 5092SOL    HW219071   0.548   8.937   2.730
 5093SOL     OW19072   1.002   8.244   3.100
 5093SOL    HW119073   1.043   8.212   3.186
 5093SOL    HW219074   0.906   8.217   3.097
 5094SOL     OW19075   0.040   7.992   2.976
 5094SOL    HW119076   0.125   7.959   2.935
 5094SOL    HW219077   0.053   8.007   3.074
 5095SOL     OW19078   0.189   7.968   3.584
 5095SOL    HW119079   0.248   7.928   3.514
 5095SOL    HW219080   0.131   8.039   3.543
 5096SOL     OW19081   1.369   8.398   3.522
 5096SOL    HW119082   1.408   8.487   3.542
 5096SOL    HW219083   1.379   8.378   3.425
 5097SOL     OW19084   0.815   8.020   2.187
 5097SOL    HW119085   0.822   7.931   2.141
 5097SOL    HW219086   0.721   8.054   2.179
 5098SOL     OW19087   1.657   8.052   3.068
 5098SOL    HW119088   1.619   7.983   3.130
 5098SOL    HW219089   1.739   8.016   3.024
 5099SOL     OW19090   0.252   9.012   3.606
 5099SOL    HW119091   0.222   9.069   3.682
 5099SOL    HW219092   0.245   8.915   3.632
 5100SOL     OW19093   0.671   7.912   3.131
 5100SOL    HW119094   0.637   7.823   3.101
 5100SOL    HW219095   0.697   7.966   3.051
 5101SOL     OW19096   0.930   9.126   3.327
 5101SOL    HW119097   0.906   9.108   3.232
 5101SOL    HW219098   0.960   9.220   3.337
 5102SOL     OW19099   0.159   8.585   3.328
 5102SOL    HW119100   0.181   8.524   3.404
 5102SOL    HW219101   0.169   8.536   3.242
 5103SOL     OW19102   1.347   8.507   3.096
 5103SOL    HW119103   1.371   8.444   3.022
 5103SOL    HW219104   1.257   8.547   3.078
 5104SOL     OW19105   1.302   8.303   2.171
 5104SOL    HW119106   1.216   8.272   2.213
 5104SOL    HW219107   1.298   8.289   2.072
 5105SOL     OW19108   1.759   9.195   3.016
 5105SOL    HW119109   1.820   9.225   2.943
 5105SOL    HW219110   1.721   9.106   2.994
 5106SOL     OW19111   1.252   9.179   2.990
 5106SOL    HW119112   1.336   9.184   2.936
 5106SOL    HW219113   1.229   9.083   3.008
 5107SOL     OW19114   0.083   8.706   2.884
 5107SOL    HW119115   0.078   8.705   2.984
 5107SOL    HW219116   0.000   8.665   2.846
 5108SOL     OW19117   0.688   9.110   3.578
 5108SOL    HW119118   0.632   9.191   3.587
 5108SOL    HW219119   0.740   9.114   3.492
 5109SOL     OW19120   1.726   7.583   2.385
 5109SOL    HW119121   1.799   7.566   2.318
 5109SOL    HW219122   1.695   7.496   2.423
 5110SOL     OW19123   1.388   9.021   2.339
 5110SOL    HW119124   1.455   9.033   2.265
 5110SOL    HW219125   1.348   9.110   2.362
 5111SOL     OW19126   1.280   8.375   2.534
 5111SOL    HW119127   1.340   8.294   2.536
 5111SOL    HW219128   1.320   8.444   2.474
 5112SOL     OW19129   0.830   8.721   3.284
 5112SOL    HW119130   0.825   8.754   3.379
 5112SOL    HW219131   0.744   8.740   3.238
 5113SOL     OW19132   1.650   9.168   3.256
 5113SOL    HW119133   1.703   9.178   3.172
 5113SOL    HW219134   1.623   9.258   3.290
 5114SOL     OW19135   1.841   7.623   2.825
 5114SOL    HW119136   1.880   7.538   2.789
 5114SOL    HW219137   1.743   7.625   2.806
 5115SOL     OW19138   0.263   7.774   2.582
 5115SOL    HW119139   0.184   7.825   2.548
 5115SOL    HW219140   0.254   7.759   2.680
 5116SOL     OW19141   1.194   9.060   1.893
 5116SOL    HW119142   1.200   8.967   1.930
 5116SOL    HW219143   1.135   9.060   1.813
 5117SOL     OW19144   0.822   8.450   3.234
 5117SOL    HW119145   0.862   8.449   3.142
 5117SOL    HW219146   0.832   8.542   3.274
 5118SOL     OW19147   0.916   8.358   2.153
 5118SOL    HW119148   0.979   8.396   2.085
 5118SOL    HW219149   0.956   8.275   2.192
 5119SOL     OW19150   1.504   9.055   1.906
 5119SOL    HW119151   1.412   9.092   1.913
 5119SOL    HW219152   1.542   9.075   1.816
 5120SOL     OW19153   0.372   8.736   3.352
 5120SOL    HW119154   0.359   8.829   3.318
 5120SOL    HW219155   0.288   8.684   3.339
 5121SOL     OW19156   1.614   8.740   3.151
 5121SOL    HW119157   1.674   8.743   3.231
 5121SOL    HW219158   1.539   8.804   3.164
 5122SOL     OW19159   1.039   8.546   2.558
 5122SOL    HW119160   0.969   8.499   2.612
 5122SOL    HW219161   1.098   8.478   2.515
 5123SOL     OW19162   1.014   7.684   2.833
 5123SOL    HW119163   1.006   7.648   2.740
 5123SOL    HW219164   1.012   7.608   2.898
 5124SOL     OW19165   0.590   8.935   2.353
 5124SOL    HW119166   0.632   8.877   2.283
 5124SOL    HW219167   0.546   9.014   2.309
 5125SOL     OW19168   1.709   7.833   3.243
 5125SOL    HW119169   1.782   7.902   3.247
 5125SOL    HW219170   1.737   7.758   3.184
 5126SOL     OW19171   0.255   8.796   2.152
 5126SOL    HW119172   0.159   8.797   2.125
 5126SOL    HW219173   0.267   8.849   2.236
 5127SOL     OW19174   0.105   8.461   3.588
 5127SOL    HW119175   0.028   8.428   3.642
 5127SOL    HW219176   0.190   8.431   3.630
 5128SOL     OW19177   0.672   7.651   3.351
 5128SOL    HW119178   0.762   7.635   3.311
 5128SOL    HW219179   0.680   7.656   3.450
 5129SOL     OW19180   1.440   8.304   3.260
 5129SOL    HW119181   1.383   8.356   3.197
 5129SOL    HW219182   1.536   8.316   3.236
 5130SOL     OW19183   1.183   8.783   1.981
 5130SOL    HW119184   1.084   8.772   1.983
 5130SOL    HW219185   1.217   8.798   2.074
 5131SOL     OW19186   0.613   8.290   3.293
 5131SOL    HW119187   0.669   8.371   3.276
 5131SOL    HW219188   0.672   8.210   3.296
 5132SOL     OW19189   1.493   9.215   2.821
 5132SOL    HW119190   1.526   9.279   2.752
 5132SOL    HW219191   1.559   9.209   2.896
 5133SOL     OW19192   0.716   8.013   3.570
 5133SOL    HW119193   0.735   8.078   3.644
 5133SOL    HW219194   0.776   7.933   3.579
 5134SOL     OW19195   1.450   8.668   3.495
 5134SOL    HW119196   1.441   8.658   3.594
 5134SOL    HW219197   1.546   8.661   3.469
 5135SOL     OW19198   0.390   9.189   3.422
 5135SOL    HW119199   0.299   9.230   3.420
 5135SOL    HW219200   0.383   9.095   3.454
 5136SOL     OW19201   1.674   8.331   3.116
 5136SOL    HW119202   1.647   8.242   3.079
 5136SOL    HW219203   1.675   8.399   3.043
 5137SOL     OW19204   1.225   7.773   2.311
 5137SOL    HW119205   1.290   7.699   2.300
 5137SOL    HW219206   1.245   7.823   2.395
 5138SOL     OW19207   0.594   8.193   2.514
 5138SOL    HW119208   0.644   8.278   2.495
 5138SOL    HW219209   0.506   8.195   2.466
 5139SOL     OW19210   1.777   7.790   3.504
 5139SOL    HW119211   1.760   7.821   3.410
 5139SOL    HW219212   1.693   7.753   3.542
 5140SOL     OW19213   1.730   8.382   3.379
 5140SOL    HW119214   1.768   8.473   3.394
 5140SOL    HW219215   1.722   8.365   3.280
 5141SOL     OW19216   0.661   9.238   2.815
 5141SOL    HW119217   0.615   9.326   2.802
 5141SOL    HW219218   0.760   9.250   2.808
 5142SOL     OW19219   0.859   8.404   2.723
 5142SOL    HW119220   0.913   8.335   2.771
 5142SOL    HW219221   0.827   8.473   2.789
 5143SOL     OW19222   1.083   8.432   1.949
 5143SOL    HW119223   1.060   8.485   1.867
 5143SOL    HW219224   1.164   8.376   1.930
 5144SOL     OW19225   1.861   9.017   2.713
 5144SOL    HW119226   1.790   9.005   2.643
 5144SOL    HW219227   1.862   8.938   2.773
 5145SOL     OW19228   0.079   8.688   2.515
 5145SOL    HW119229   0.078   8.641   2.603
 5145SOL    HW219230   0.161   8.660   2.464
 5146SOL     OW19231   0.672   8.839   3.486
 5146SOL    HW119232   0.594   8.789   3.524
 5146SOL    HW219233   0.669   8.934   3.517
 5147SOL     OW19234   1.824   7.640   3.089
 5147SOL    HW119235   1.820   7.550   3.133
 5147SOL    HW219236   1.827   7.629   2.990
 5148SOL     OW19237   0.428   7.872   2.382
 5148SOL    HW119238   0.458   7.800   2.320
 5148SOL    HW219239   0.389   7.832   2.465
 5149SOL     OW19240   1.705   8.935   2.966
 5149SOL    HW119241   1.612   8.910   2.939
 5149SOL    HW219242   1.731   8.885   3.048
 5150SOL     OW19243   0.317   7.995   3.142
 5150SOL    HW119244   0.355   7.936   3.214
 5150SOL    HW219245   0.357   7.969   3.054
 5151SOL     OW19246   0.812   9.034   2.549
 5151SOL    HW119247   0.844   9.044   2.455
 5151SOL    HW219248   0.733   8.972   2.551
 5152SOL     OW19249   1.424   7.662   2.974
 5152SOL    HW119250   1.476   7.597   3.029
 5152SOL    HW219251   1.375   7.725   3.035
 5153SOL     OW19252   1.001   7.482   3.016
 5153SOL    HW119253   0.938   7.410   2.985
 5153SOL    HW219254   1.094   7.446   3.016
 5154SOL     OW19255   0.770   8.778   2.163
 5154SOL    HW119256   0.724   8.691   2.180
 5154SOL    HW219257   0.861   8.775   2.204
 5155SOL     OW19258   0.618   9.015   3.146
 5155SOL    HW119259   0.613   9.097   3.203
 5155SOL    HW219260   0.707   9.012   3.101
 5156SOL     OW19261   1.352   7.500   2.030
 5156SOL    HW119262   1.387   7.459   1.946
 5156SOL    HW219263   1.262   7.462   2.050
 5157SOL     OW19264   1.300   7.901   2.553
 5157SOL    HW119265   1.241   7.981   2.557
 5157SOL    HW219266   1.315   7.866   2.646
 5158SOL     OW19267   1.593   7.669   2.744
 5158SOL    HW119268   1.509   7.668   2.798
 5158SOL    HW219269   1.595   7.752   2.688
 5159SOL     OW19270   0.039   8.525   2.162
 5159SOL    HW119271   0.138   8.514   2.153
 5159SOL    HW219272  -0.001   8.439   2.194
 5160SOL     OW19273   0.230   8.076   3.837
 5160SOL    HW119274   0.137   8.074   3.874
 5160SOL    HW219275   0.231   8.037   3.745
 5161SOL     OW19276   0.225   7.723   4.720
 5161SOL    HW119277   0.260   7.706   4.812
 5161SOL    HW219278   0.137   7.678   4.708
 5162SOL     OW19279   0.019   7.816   4.371
 5162SOL    HW119280  -0.063   7.859   4.410
 5162SOL    HW219281  -0.009   7.743   4.308
 5163SOL     OW19282   1.555   8.959   4.427
 5163SOL    HW119283   1.498   8.943   4.508
 5163SOL    HW219284   1.496   8.969   4.347
 5164SOL     OW19285   1.135   8.151   4.441
 5164SOL    HW119286   1.192   8.229   4.416
 5164SOL    HW219287   1.075   8.177   4.517
 5165SOL     OW19288   1.755   8.055   3.955
 5165SOL    HW119289   1.743   8.042   3.856
 5165SOL    HW219290   1.725   7.974   4.004
 5166SOL     OW19291   0.768   8.592   4.747
 5166SOL    HW119292   0.690   8.609   4.807
 5166SOL    HW219293   0.802   8.679   4.711
 5167SOL     OW19294   0.850   8.246   5.547
 5167SOL    HW119295   0.846   8.322   5.612
 5167SOL    HW219296   0.872   8.282   5.456
 5168SOL     OW19297   0.685   8.460   4.389
 5168SOL    HW119298   0.754   8.444   4.459
 5168SOL    HW219299   0.612   8.517   4.427
 5169SOL     OW19300   0.686   8.609   5.527
 5169SOL    HW119301   0.746   8.688   5.541
 5169SOL    HW219302   0.600   8.640   5.486
 5170SOL     OW19303   0.335   8.883   4.785
 5170SOL    HW119304   0.257   8.852   4.732
 5170SOL    HW219305   0.393   8.941   4.728
 5171SOL     OW19306   0.438   7.840   5.223
 5171SOL    HW119307   0.520   7.784   5.232
 5171SOL    HW219308   0.357   7.782   5.227
 5172SOL     OW19309   1.603   7.895   4.461
 5172SOL    HW119310   1.529   7.941   4.411
 5172SOL    HW219311   1.654   7.963   4.514
 5173SOL     OW19312   0.231   9.161   4.207
 5173SOL    HW119313   0.265   9.238   4.261
 5173SOL    HW219314   0.275   9.161   4.117
 5174SOL     OW19315   1.127   8.789   5.414
 5174SOL    HW119316   1.174   8.789   5.502
 5174SOL    HW219317   1.079   8.702   5.403
 5175SOL     OW19318   0.230   8.882   4.262
 5175SOL    HW119319   0.204   8.978   4.262
 5175SOL    HW219320   0.159   8.828   4.307
 5176SOL     OW19321   0.240   8.539   4.610
 5176SOL    HW119322   0.254   8.455   4.662
 5176SOL    HW219323   0.185   8.603   4.665
 5177SOL     OW19324   1.594   7.562   5.204
 5177SOL    HW119325   1.576   7.629   5.132
 5177SOL    HW219326   1.591   7.608   5.293
 5178SOL     OW19327   0.122   8.091   4.287
 5178SOL    HW119328   0.077   8.003   4.304
 5178SOL    HW219329   0.121   8.145   4.371
 5179SOL     OW19330   1.842   9.215   4.083
 5179SOL    HW119331   1.896   9.186   4.163
 5179SOL    HW219332   1.872   9.305   4.054
 5180SOL     OW19333   1.689   8.370   4.336
 5180SOL    HW119334   1.784   8.341   4.344
 5180SOL    HW219335   1.681   8.435   4.261
 5181SOL     OW19336   1.641   8.556   4.156
 5181SOL    HW119337   1.727   8.558   4.104
 5181SOL    HW219338   1.655   8.603   4.244
 5182SOL     OW19339   0.113   8.185   5.321
 5182SOL    HW119340   0.201   8.172   5.366
 5182SOL    HW219341   0.100   8.282   5.299
 5183SOL     OW19342   0.613   8.813   4.450
 5183SOL    HW119343   0.564   8.726   4.459
 5183SOL    HW219344   0.590   8.856   4.363
 5184SOL     OW19345   0.809   7.452   4.226
 5184SOL    HW119346   0.849   7.543   4.217
 5184SOL    HW219347   0.709   7.460   4.232
 5185SOL     OW19348   0.197   8.424   4.988
 5185SOL    HW119349   0.286   8.379   4.974
 5185SOL    HW219350   0.124   8.359   4.969
 5186SOL     OW19351   1.525   8.447   3.914
 5186SOL    HW119352   1.462   8.371   3.927
 5186SOL    HW219353   1.573   8.465   4.000
 5187SOL     OW19354   1.187   9.240   5.340
 5187SOL    HW119355   1.211   9.300   5.264
 5187SOL    HW219356   1.194   9.145   5.310
 5188SOL     OW19357   0.317   7.699   5.525
 5188SOL    HW119358   0.388   7.770   5.531
 5188SOL    HW219359   0.229   7.738   5.553
 5189SOL     OW19360   1.667   9.162   4.296
 5189SOL    HW119361   1.626   9.139   4.208
 5189SOL    HW219362   1.649   9.088   4.361
 5190SOL     OW19363   1.281   7.793   4.668
 5190SOL    HW119364   1.195   7.743   4.655
 5190SOL    HW219365   1.343   7.739   4.724
 5191SOL     OW19366   1.576   9.110   4.031
 5191SOL    HW119367   1.665   9.156   4.034
 5191SOL    HW219368   1.555   9.086   3.936
 5192SOL     OW19369   0.807   8.053   5.189
 5192SOL    HW119370   0.760   8.050   5.278
 5192SOL    HW219371   0.756   7.998   5.123
 5193SOL     OW19372   1.394   7.917   5.398
 5193SOL    HW119373   1.374   7.960   5.486
 5193SOL    HW219374   1.472   7.855   5.407
 5194SOL     OW19375   0.973   8.338   5.296
 5194SOL    HW119376   1.019   8.254   5.267
 5194SOL    HW219377   0.917   8.372   5.221
 5195SOL     OW19378   0.991   7.858   4.966
 5195SOL    HW119379   0.914   7.892   5.020
 5195SOL    HW219380   0.957   7.807   4.887
 5196SOL     OW19381   1.041   8.149   4.153
 5196SOL    HW119382   1.067   8.145   4.249
 5196SOL    HW219383   0.956   8.098   4.139
 5197SOL     OW19384   0.076   8.259   4.513
 5197SOL    HW119385   0.175   8.247   4.522
 5197SOL    HW219386   0.052   8.354   4.534
 5198SOL     OW19387   0.130   9.269   5.295
 5198SOL    HW119388   0.120   9.254   5.394
 5198SOL    HW219389   0.044   9.305   5.259
 5199SOL     OW19390   1.362   8.592   4.269
 5199SOL    HW119391   1.445   8.563   4.221
 5199SOL    HW219392   1.313   8.659   4.213
 5200SOL     OW19393   0.550   7.644   4.609
 5200SOL    HW119394   0.545   7.639   4.709
 5200SOL    HW219395   0.552   7.740   4.580
 5201SOL     OW19396   1.008   8.904   4.201
 5201SOL    HW119397   0.962   8.976   4.149
 5201SOL    HW219398   1.004   8.924   4.299
 5202SOL     OW19399   1.795   8.514   4.597
 5202SOL    HW119400   1.733   8.499   4.521
 5202SOL    HW219401   1.743   8.525   4.682
 5203SOL     OW19402   1.227   8.998   5.230
 5203SOL    HW119403   1.233   8.921   5.294
 5203SOL    HW219404   1.175   8.972   5.150
 5204SOL     OW19405   1.458   8.183   4.452
 5204SOL    HW119406   1.453   8.118   4.527
 5204SOL    HW219407   1.538   8.242   4.465
 5205SOL     OW19408   1.111   9.224   3.961
 5205SOL    HW119409   1.051   9.162   4.011
 5205SOL    HW219410   1.142   9.180   3.876
 5206SOL     OW19411   0.202   7.733   5.222
 5206SOL    HW119412   0.122   7.793   5.209
 5206SOL    HW219413   0.192   7.684   5.308
 5207SOL     OW19414   1.632   8.825   3.805
 5207SOL    HW119415   1.600   8.919   3.795
 5207SOL    HW219416   1.556   8.762   3.793
 5208SOL     OW19417   0.464   9.191   4.047
 5208SOL    HW119418   0.497   9.230   4.133
 5208SOL    HW219419   0.540   9.184   3.982
 5209SOL     OW19420   1.400   7.555   4.150
 5209SOL    HW119421   1.376   7.518   4.060
 5209SOL    HW219422   1.499   7.571   4.154
 5210SOL     OW19423   0.940   9.146   4.628
 5210SOL    HW119424   1.020   9.089   4.649
 5210SOL    HW219425   0.891   9.106   4.551
 5211SOL     OW19426   0.382   8.148   4.204
 5211SOL    HW119427   0.427   8.058   4.201
 5211SOL    HW219428   0.288   8.137   4.237
 5212SOL     OW19429   1.547   7.670   5.453
 5212SOL    HW119430   1.542   7.707   5.545
 5212SOL    HW219431   1.475   7.601   5.441
 5213SOL     OW19432   0.614   7.570   3.841
 5213SOL    HW119433   0.712   7.548   3.848
 5213SOL    HW219434   0.583   7.553   3.748
 5214SOL     OW19435   0.888   8.962   4.919
 5214SOL    HW119436   0.865   8.937   4.825
 5214SOL    HW219437   0.949   8.893   4.958
 5215SOL     OW19438   1.351   8.038   5.157
 5215SOL    HW119439   1.379   7.995   5.242
 5215SOL    HW219440   1.376   8.134   5.158
 5216SOL     OW19441   0.803   8.850   4.648
 5216SOL    HW119442   0.893   8.864   4.606
 5216SOL    HW219443   0.732   8.852   4.577
 5217SOL     OW19444   0.922   7.951   4.623
 5217SOL    HW119445   0.897   7.942   4.527
 5217SOL    HW219446   0.970   7.869   4.654
 5218SOL     OW19447   0.539   7.512   4.236
 5218SOL    HW119448   0.458   7.513   4.294
 5218SOL    HW219449   0.542   7.595   4.181
 5219SOL     OW19450   1.434   8.636   3.765
 5219SOL    HW119451   1.466   8.560   3.822
 5219SOL    HW219452   1.342   8.663   3.795
 5220SOL     OW19453   0.297   7.483   3.895
 5220SOL    HW119454   0.346   7.567   3.874
 5220SOL    HW219455   0.359   7.418   3.940
 5221SOL     OW19456   0.935   7.684   4.204
 5221SOL    HW119457   0.887   7.725   4.126
 5221SOL    HW219458   1.034   7.682   4.185
 5222SOL     OW19459   1.076   8.131   5.188
 5222SOL    HW119460   0.996   8.070   5.191
 5222SOL    HW219461   1.157   8.078   5.164
 5223SOL     OW19462   1.227   9.018   4.517
 5223SOL    HW119463   1.248   9.092   4.452
 5223SOL    HW219464   1.295   9.018   4.590
 5224SOL     OW19465   0.459   8.600   4.465
 5224SOL    HW119466   0.388   8.573   4.530
 5224SOL    HW219467   0.433   8.572   4.372
 5225SOL     OW19468   1.271   9.245   4.315
 5225SOL    HW119469   1.315   9.309   4.251
 5225SOL    HW219470   1.221   9.297   4.385
 5226SOL     OW19471   0.078   8.004   5.110
 5226SOL    HW119472   0.170   8.003   5.069
 5226SOL    HW219473   0.072   8.078   5.177
 5227SOL     OW19474   0.561   7.670   4.871
 5227SOL    HW119475   0.599   7.586   4.908
 5227SOL    HW219476   0.473   7.689   4.915
 5228SOL     OW19477   0.866   7.902   4.366
 5228SOL    HW119478   0.834   7.974   4.304
 5228SOL    HW219479   0.890   7.821   4.313
 5229SOL     OW19480   1.017   7.487   4.477
 5229SOL    HW119481   0.945   7.492   4.408
 5229SOL    HW219482   0.993   7.418   4.546
 5230SOL     OW19483   1.429   8.621   4.591
 5230SOL    HW119484   1.374   8.537   4.584
 5230SOL    HW219485   1.455   8.650   4.499
 5231SOL     OW19486   1.466   8.038   4.716
 5231SOL    HW119487   1.436   7.943   4.723
 5231SOL    HW219488   1.539   8.054   4.782
 5232SOL     OW19489   1.857   8.281   4.101
 5232SOL    HW119490   1.899   8.217   4.165
 5232SOL    HW219491   1.819   8.230   4.023
 5233SOL     OW19492   1.664   8.728   4.381
 5233SOL    HW119493   1.763   8.736   4.395
 5233SOL    HW219494   1.619   8.812   4.412
 5234SOL     OW19495   1.390   8.023   3.802
 5234SOL    HW119496   1.336   8.002   3.883
 5234SOL    HW219497   1.481   7.982   3.811
 5235SOL     OW19498   0.527   7.704   4.052
 5235SOL    HW119499   0.554   7.645   3.977
 5235SOL    HW219500   0.527   7.799   4.021
 5236SOL     OW19501   1.754   8.671   5.312
 5236SOL    HW119502   1.845   8.632   5.299
 5236SOL    HW219503   1.762   8.767   5.336
 5237SOL     OW19504   1.064   8.795   5.064
 5237SOL    HW119505   0.984   8.772   5.119
 5237SOL    HW219506   1.147   8.769   5.113
 5238SOL     OW19507   1.592   9.077   5.349
 5238SOL    HW119508   1.619   9.111   5.259
 5238SOL    HW219509   1.671   9.039   5.395
 5239SOL     OW19510   1.111   8.643   4.824
 5239SOL    HW119511   1.071   8.687   4.905
 5239SOL    HW219512   1.070   8.680   4.741
 5240SOL     OW19513   0.915   7.537   5.126
 5240SOL    HW119514   0.940   7.517   5.031
 5240SOL    HW219515   0.987   7.593   5.168
 5241SOL     OW19516   0.980   8.564   5.443
 5241SOL    HW119517   0.881   8.570   5.453
 5241SOL    HW219518   1.003   8.484   5.387
 5242SOL     OW19519   0.705   8.498   4.092
 5242SOL    HW119520   0.691   8.505   4.191
 5242SOL    HW219521   0.789   8.447   4.074
 5243SOL     OW19522   0.410   8.261   4.975
 5243SOL    HW119523   0.496   8.273   5.025
 5243SOL    HW219524   0.368   8.174   5.002
 5244SOL     OW19525   1.274   7.834   4.986
 5244SOL    HW119526   1.295   7.908   5.050
 5244SOL    HW219527   1.185   7.851   4.943
 5245SOL     OW19528   0.064   9.012   5.055
 5245SOL    HW119529   0.018   9.094   5.021
 5245SOL    HW219530   0.162   9.031   5.064
 5246SOL     OW19531   0.566   7.985   4.589
 5246SOL    HW119532   0.578   8.051   4.515
 5246SOL    HW219533   0.612   8.019   4.672
 5247SOL     OW19534   1.252   8.796   4.112
 5247SOL    HW119535   1.302   8.873   4.152
 5247SOL    HW219536   1.157   8.798   4.144
 5248SOL     OW19537   1.582   8.087   4.196
 5248SOL    HW119538   1.551   8.148   4.269
 5248SOL    HW219539   1.632   8.139   4.127
 5249SOL     OW19540   0.402   8.199   5.322
 5249SOL    HW119541   0.470   8.254   5.275
 5249SOL    HW219542   0.442   8.111   5.349
 5250SOL     OW19543   1.587   8.227   5.394
 5250SOL    HW119544   1.495   8.265   5.389
 5250SOL    HW219545   1.647   8.274   5.329
 5251SOL     OW19546   0.573   8.318   4.753
 5251SOL    HW119547   0.617   8.407   4.744
 5251SOL    HW219548   0.510   8.318   4.830
 5252SOL     OW19549   1.360   8.310   4.769
 5252SOL    HW119550   1.285   8.310   4.703
 5252SOL    HW219551   1.397   8.218   4.778
 5253SOL     OW19552   1.209   7.973   3.999
 5253SOL    HW119553   1.222   7.889   4.053
 5253SOL    HW219554   1.180   8.047   4.059
 5254SOL     OW19555   0.307   7.661   4.955
 5254SOL    HW119556   0.284   7.698   5.045
 5254SOL    HW219557   0.277   7.566   4.949
 5255SOL     OW19558   0.037   8.758   5.006
 5255SOL    HW119559   0.090   8.709   5.074
 5255SOL    HW219560   0.059   8.856   5.011
 5256SOL     OW19561   0.732   8.082   4.788
 5256SOL    HW119562   0.791   8.056   4.712
 5256SOL    HW219563   0.704   8.178   4.777
 5257SOL     OW19564   1.728   8.383   5.578
 5257SOL    HW119565   1.682   8.376   5.489
 5257SOL    HW219566   1.666   8.427   5.644
 5258SOL     OW19567   0.307   7.511   4.342
 5258SOL    HW119568   0.296   7.605   4.375
 5258SOL    HW219569   0.302   7.448   4.419
 5259SOL     OW19570   1.622   7.815   4.098
 5259SOL    HW119571   1.624   7.739   4.162
 5259SOL    HW219572   1.574   7.892   4.138
 5260SOL     OW19573   1.023   8.214   4.690
 5260SOL    HW119574   1.038   8.235   4.786
 5260SOL    HW219575   0.993   8.119   4.681
 5261SOL     OW19576   0.980   9.021   5.424
 5261SOL    HW119577   0.960   9.065   5.336
 5261SOL    HW219578   1.019   8.930   5.408
 5262SOL     OW19579   1.859   8.966   5.329
 5262SOL    HW119580   1.873   8.993   5.234
 5262SOL    HW219581   1.942   8.988   5.382
 5263SOL     OW19582   0.350   8.346   5.528
 5263SOL    HW119583   0.426   8.390   5.576
 5263SOL    HW219584   0.385   8.299   5.446
 5264SOL     OW19585   1.540   7.722   3.849
 5264SOL    HW119586   1.479   7.647   3.872
 5264SOL    HW219587   1.562   7.774   3.932
 5265SOL     OW19588   1.303   8.286   3.766
 5265SOL    HW119589   1.337   8.193   3.781
 5265SOL    HW219590   1.321   8.313   3.671
 5266SOL     OW19591   1.068   8.781   4.573
 5266SOL    HW119592   1.075   8.697   4.518
 5266SOL    HW219593   1.130   8.850   4.537
 5267SOL     OW19594   0.319   8.258   4.673
 5267SOL    HW119595   0.412   8.294   4.678
 5267SOL    HW219596   0.313   8.173   4.725
 5268SOL     OW19597   0.339   7.957   4.730
 5268SOL    HW119598   0.287   7.874   4.713
 5268SOL    HW219599   0.416   7.962   4.666
 5269SOL     OW19600   1.138   7.828   5.402
 5269SOL    HW119601   1.093   7.891   5.466
 5269SOL    HW219602   1.231   7.859   5.385
 5270SOL     OW19603   0.504   9.016   4.634
 5270SOL    HW119604   0.570   9.090   4.643
 5270SOL    HW219605   0.548   8.937   4.592
 5271SOL     OW19606   1.002   8.244   4.962
 5271SOL    HW119607   1.043   8.212   5.048
 5271SOL    HW219608   0.906   8.217   4.959
 5272SOL     OW19609   0.040   7.992   4.838
 5272SOL    HW119610   0.125   7.959   4.797
 5272SOL    HW219611   0.053   8.007   4.936
 5273SOL     OW19612   0.189   7.968   5.446
 5273SOL    HW119613   0.248   7.928   5.376
 5273SOL    HW219614   0.131   8.039   5.405
 5274SOL     OW19615   1.369   8.398   5.384
 5274SOL    HW119616   1.408   8.487   5.404
 5274SOL    HW219617   1.379   8.378   5.287
 5275SOL     OW19618   1.657   8.052   4.930
 5275SOL    HW119619   1.619   7.983   4.992
 5275SOL    HW219620   1.739   8.016   4.886
 5276SOL     OW19621   0.252   9.012   5.468
 5276SOL    HW119622   0.222   9.069   5.544
 5276SOL    HW219623   0.245   8.915   5.494
 5277SOL     OW19624   0.671   7.912   4.993
 5277SOL    HW119625   0.637   7.823   4.963
 5277SOL    HW219626   0.697   7.966   4.913
 5278SOL     OW19627   0.930   9.126   5.189
 5278SOL    HW119628   0.906   9.108   5.094
 5278SOL    HW219629   0.960   9.220   5.199
 5279SOL     OW19630   0.159   8.585   5.190
 5279SOL    HW119631   0.181   8.524   5.266
 5279SOL    HW219632   0.169   8.536   5.104
 5280SOL     OW19633   1.347   8.507   4.958
 5280SOL    HW119634   1.371   8.444   4.884
 5280SOL    HW219635   1.257   8.547   4.940
 5281SOL     OW19636   1.302   8.303   4.033
 5281SOL    HW119637   1.216   8.272   4.075
 5281SOL    HW219638   1.298   8.289   3.934
 5282SOL     OW19639   0.083   8.706   4.746
 5282SOL    HW119640   0.078   8.705   4.846
 5282SOL    HW219641   0.000   8.665   4.708
 5283SOL     OW19642   0.688   9.110   5.440
 5283SOL    HW119643   0.632   9.191   5.449
 5283SOL    HW219644   0.740   9.114   5.354
 5284SOL     OW19645   1.726   7.583   4.247
 5284SOL    HW119646   1.799   7.566   4.180
 5284SOL    HW219647   1.695   7.496   4.285
 5285SOL     OW19648   1.388   9.021   4.201
 5285SOL    HW119649   1.455   9.033   4.127
 5285SOL    HW219650   1.348   9.110   4.224
 5286SOL     OW19651   0.130   9.242   5.575
 5286SOL    HW119652   0.089   9.168   5.628
 5286SOL    HW219653   0.194   9.293   5.633
 5287SOL     OW19654   1.280   8.375   4.396
 5287SOL    HW119655   1.340   8.294   4.398
 5287SOL    HW219656   1.320   8.444   4.336
 5288SOL     OW19657   0.830   8.721   5.146
 5288SOL    HW119658   0.825   8.754   5.241
 5288SOL    HW219659   0.744   8.740   5.100
 5289SOL     OW19660   0.672   9.064   3.878
 5289SOL    HW119661   0.681   9.074   3.779
 5289SOL    HW219662   0.632   8.975   3.899
 5290SOL     OW19663   1.650   9.168   5.118
 5290SOL    HW119664   1.703   9.178   5.034
 5290SOL    HW219665   1.623   9.258   5.152
 5291SOL     OW19666   1.841   7.623   4.687
 5291SOL    HW119667   1.880   7.538   4.651
 5291SOL    HW219668   1.743   7.625   4.668
 5292SOL     OW19669   0.263   7.774   4.444
 5292SOL    HW119670   0.184   7.825   4.410
 5292SOL    HW219671   0.254   7.759   4.542
 5293SOL     OW19672   1.194   9.060   3.755
 5293SOL    HW119673   1.200   8.967   3.792
 5293SOL    HW219674   1.135   9.060   3.675
 5294SOL     OW19675   0.822   8.450   5.096
 5294SOL    HW119676   0.862   8.449   5.004
 5294SOL    HW219677   0.832   8.542   5.136
 5295SOL     OW19678   1.504   9.055   3.768
 5295SOL    HW119679   1.412   9.092   3.775
 5295SOL    HW219680   1.542   9.075   3.678
 5296SOL     OW19681   1.039   8.546   4.420
 5296SOL    HW119682   0.969   8.499   4.474
 5296SOL    HW219683   1.098   8.478   4.377
 5297SOL     OW19684   1.014   7.684   4.695
 5297SOL    HW119685   1.006   7.648   4.602
 5297SOL    HW219686   1.012   7.608   4.760
 5298SOL     OW19687   0.590   8.935   4.215
 5298SOL    HW119688   0.632   8.877   4.145
 5298SOL    HW219689   0.546   9.014   4.171
 5299SOL     OW19690   1.709   7.833   5.105
 5299SOL    HW119691   1.782   7.902   5.109
 5299SOL    HW219692   1.737   7.758   5.046
 5300SOL     OW19693   0.105   8.461   5.450
 5300SOL    HW119694   0.028   8.428   5.504
 5300SOL    HW219695   0.190   8.431   5.492
 5301SOL     OW19696   0.672   7.651   5.213
 5301SOL    HW119697   0.762   7.635   5.173
 5301SOL    HW219698   0.680   7.656   5.312
 5302SOL     OW19699   0.075   7.793   3.757
 5302SOL    HW119700  -0.017   7.765   3.728
 5302SOL    HW219701   0.106   7.870   3.701
 5303SOL     OW19702   1.440   8.304   5.122
 5303SOL    HW119703   1.383   8.356   5.059
 5303SOL    HW219704   1.536   8.316   5.098
 5304SOL     OW19705   0.072   7.614   4.042
 5304SOL    HW119706   0.055   7.697   3.988
 5304SOL    HW219707   0.162   7.577   4.020
 5305SOL     OW19708   1.183   8.783   3.843
 5305SOL    HW119709   1.084   8.772   3.845
 5305SOL    HW219710   1.217   8.798   3.936
 5306SOL     OW19711   0.716   8.013   5.432
 5306SOL    HW119712   0.735   8.078   5.506
 5306SOL    HW219713   0.776   7.933   5.441
 5307SOL     OW19714   1.450   8.668   5.357
 5307SOL    HW119715   1.441   8.658   5.456
 5307SOL    HW219716   1.546   8.661   5.331
 5308SOL     OW19717   1.674   8.331   4.978
 5308SOL    HW119718   1.647   8.242   4.941
 5308SOL    HW219719   1.675   8.399   4.905
 5309SOL     OW19720   1.225   7.773   4.173
 5309SOL    HW119721   1.290   7.699   4.162
 5309SOL    HW219722   1.245   7.823   4.257
 5310SOL     OW19723   0.594   8.193   4.376
 5310SOL    HW119724   0.644   8.278   4.357
 5310SOL    HW219725   0.506   8.195   4.328
 5311SOL     OW19726   1.777   7.790   5.366
 5311SOL    HW119727   1.760   7.821   5.272
 5311SOL    HW219728   1.693   7.753   5.404
 5312SOL     OW19729   1.730   8.382   5.241
 5312SOL    HW119730   1.768   8.473   5.256
 5312SOL    HW219731   1.722   8.365   5.142
 5313SOL     OW19732   0.859   8.822   3.740
 5313SOL    HW119733   0.813   8.837   3.828
 5313SOL    HW219734   0.903   8.907   3.710
 5314SOL     OW19735   0.859   8.404   4.585
 5314SOL    HW119736   0.913   8.335   4.633
 5314SOL    HW219737   0.827   8.473   4.651
 5315SOL     OW19738   1.083   8.432   3.811
 5315SOL    HW119739   1.060   8.485   3.729
 5315SOL    HW219740   1.164   8.376   3.792
 5316SOL     OW19741   1.861   9.017   4.575
 5316SOL    HW119742   1.790   9.005   4.505
 5316SOL    HW219743   1.862   8.938   4.635
 5317SOL     OW19744   0.221   8.762   5.568
 5317SOL    HW119745   0.156   8.689   5.547
 5317SOL    HW219746   0.225   8.776   5.666
 5318SOL     OW19747   0.079   8.688   4.377
 5318SOL    HW119748   0.078   8.641   4.465
 5318SOL    HW219749   0.161   8.660   4.326
 5319SOL     OW19750   0.672   8.839   5.348
 5319SOL    HW119751   0.594   8.789   5.386
 5319SOL    HW219752   0.669   8.934   5.379
 5320SOL     OW19753   1.824   7.640   4.951
 5320SOL    HW119754   1.820   7.550   4.995
 5320SOL    HW219755   1.827   7.629   4.852
 5321SOL     OW19756   0.428   7.872   4.244
 5321SOL    HW119757   0.458   7.800   4.182
 5321SOL    HW219758   0.389   7.832   4.327
 5322SOL     OW19759   0.317   7.995   5.004
 5322SOL    HW119760   0.355   7.936   5.076
 5322SOL    HW219761   0.357   7.969   4.916
 5323SOL     OW19762   0.812   9.034   4.411
 5323SOL    HW119763   0.844   9.044   4.317
 5323SOL    HW219764   0.733   8.972   4.413
 5324SOL     OW19765   1.424   7.662   4.836
 5324SOL    HW119766   1.476   7.597   4.891
 5324SOL    HW219767   1.375   7.725   4.897
 5325SOL     OW19768   1.001   7.482   4.878
 5325SOL    HW119769   0.938   7.410   4.847
 5325SOL    HW219770   1.094   7.446   4.878
 5326SOL     OW19771   0.770   8.778   4.025
 5326SOL    HW119772   0.724   8.691   4.042
 5326SOL    HW219773   0.861   8.775   4.066
 5327SOL     OW19774   0.618   9.015   5.008
 5327SOL    HW119775   0.613   9.097   5.065
 5327SOL    HW219776   0.707   9.012   4.963
 5328SOL     OW19777   1.352   7.500   3.892
 5328SOL    HW119778   1.387   7.459   3.808
 5328SOL    HW219779   1.262   7.462   3.912
 5329SOL     OW19780   1.300   7.901   4.415
 5329SOL    HW119781   1.241   7.981   4.419
 5329SOL    HW219782   1.315   7.866   4.508
 5330SOL     OW19783   1.593   7.669   4.606
 5330SOL    HW119784   1.509   7.668   4.660
 5330SOL    HW219785   1.595   7.752   4.550
 5331SOL     OW19786   0.875   9.094   4.061
 5331SOL    HW119787   0.798   9.059   4.007
 5331SOL    HW219788   0.843   9.165   4.123
 5332SOL     OW19789   0.230   8.076   5.699
 5332SOL    HW119790   0.137   8.074   5.736
 5332SOL    HW219791   0.231   8.037   5.607
 5333SOL     OW19792   0.225   7.723   6.582
 5333SOL    HW119793   0.260   7.706   6.674
 5333SOL    HW219794   0.137   7.678   6.570
 5334SOL     OW19795   0.019   7.816   6.233
 5334SOL    HW119796  -0.063   7.859   6.272
 5334SOL    HW219797  -0.009   7.743   6.170
 5335SOL     OW19798   0.569   8.723   6.751
 5335SOL    HW119799   0.476   8.716   6.714
 5335SOL    HW219800   0.580   8.812   6.795
 5336SOL     OW19801   1.555   8.959   6.289
 5336SOL    HW119802   1.498   8.943   6.370
 5336SOL    HW219803   1.496   8.969   6.209
 5337SOL     OW19804   1.135   8.151   6.303
 5337SOL    HW119805   1.192   8.229   6.278
 5337SOL    HW219806   1.075   8.177   6.379
 5338SOL     OW19807   0.768   8.592   6.609
 5338SOL    HW119808   0.690   8.609   6.669
 5338SOL    HW219809   0.802   8.679   6.573
 5339SOL     OW19810   0.685   8.460   6.251
 5339SOL    HW119811   0.754   8.444   6.321
 5339SOL    HW219812   0.612   8.517   6.289
 5340SOL     OW19813   0.335   8.883   6.647
 5340SOL    HW119814   0.257   8.852   6.594
 5340SOL    HW219815   0.393   8.941   6.590
 5341SOL     OW19816   1.460   8.953   6.925
 5341SOL    HW119817   1.484   9.047   6.951
 5341SOL    HW219818   1.444   8.899   7.007
 5342SOL     OW19819   0.438   7.840   7.085
 5342SOL    HW119820   0.520   7.784   7.094
 5342SOL    HW219821   0.357   7.782   7.089
 5343SOL     OW19822   1.603   7.895   6.323
 5343SOL    HW119823   1.529   7.941   6.273
 5343SOL    HW219824   1.654   7.963   6.376
 5344SOL     OW19825   0.231   9.161   6.069
 5344SOL    HW119826   0.265   9.238   6.123
 5344SOL    HW219827   0.275   9.161   5.979
 5345SOL     OW19828   1.127   8.789   7.276
 5345SOL    HW119829   1.174   8.789   7.364
 5345SOL    HW219830   1.079   8.702   7.265
 5346SOL     OW19831   0.230   8.882   6.124
 5346SOL    HW119832   0.204   8.978   6.124
 5346SOL    HW219833   0.159   8.828   6.169
 5347SOL     OW19834   0.240   8.539   6.472
 5347SOL    HW119835   0.254   8.455   6.524
 5347SOL    HW219836   0.185   8.603   6.527
 5348SOL     OW19837   0.620   9.234   7.025
 5348SOL    HW119838   0.528   9.217   7.060
 5348SOL    HW219839   0.648   9.326   7.051
 5349SOL     OW19840   0.606   8.412   5.709
 5349SOL    HW119841   0.613   8.496   5.655
 5349SOL    HW219842   0.652   8.425   5.797
 5350SOL     OW19843   1.594   7.562   7.066
 5350SOL    HW119844   1.576   7.629   6.994
 5350SOL    HW219845   1.591   7.608   7.155
 5351SOL     OW19846   0.122   8.091   6.149
 5351SOL    HW119847   0.077   8.003   6.166
 5351SOL    HW219848   0.121   8.145   6.233
 5352SOL     OW19849   1.842   9.215   5.945
 5352SOL    HW119850   1.896   9.186   6.025
 5352SOL    HW219851   1.872   9.305   5.916
 5353SOL     OW19852   0.027   9.044   5.703
 5353SOL    HW119853   0.008   8.948   5.724
 5353SOL    HW219854  -0.006   9.102   5.778
 5354SOL     OW19855   1.689   8.370   6.198
 5354SOL    HW119856   1.784   8.341   6.206
 5354SOL    HW219857   1.681   8.435   6.123
 5355SOL     OW19858   1.641   8.556   6.018
 5355SOL    HW119859   1.727   8.558   5.966
 5355SOL    HW219860   1.655   8.603   6.106
 5356SOL     OW19861   0.113   8.185   7.183
 5356SOL    HW119862   0.201   8.172   7.228
 5356SOL    HW219863   0.100   8.282   7.161
 5357SOL     OW19864   0.613   8.813   6.312
 5357SOL    HW119865   0.564   8.726   6.321
 5357SOL    HW219866   0.590   8.856   6.225
 5358SOL     OW19867   1.293   8.676   7.009
 5358SOL    HW119868   1.330   8.603   6.951
 5358SOL    HW219869   1.345   8.681   7.094
 5359SOL     OW19870   0.809   7.452   6.088
 5359SOL    HW119871   0.849   7.543   6.079
 5359SOL    HW219872   0.709   7.460   6.094
 5360SOL     OW19873   0.197   8.424   6.850
 5360SOL    HW119874   0.286   8.379   6.836
 5360SOL    HW219875   0.124   8.359   6.831
 5361SOL     OW19876   1.525   8.447   5.776
 5361SOL    HW119877   1.462   8.371   5.789
 5361SOL    HW219878   1.573   8.465   5.862
 5362SOL     OW19879   1.187   9.240   7.202
 5362SOL    HW119880   1.211   9.300   7.126
 5362SOL    HW219881   1.194   9.145   7.172
 5363SOL     OW19882   0.317   7.699   7.387
 5363SOL    HW119883   0.388   7.770   7.393
 5363SOL    HW219884   0.229   7.738   7.415
 5364SOL     OW19885   1.466   8.865   6.539
 5364SOL    HW119886   1.407   8.871   6.619
 5364SOL    HW219887   1.451   8.777   6.493
 5365SOL     OW19888   1.667   9.162   6.158
 5365SOL    HW119889   1.626   9.139   6.070
 5365SOL    HW219890   1.649   9.088   6.223
 5366SOL     OW19891   0.598   8.177   5.856
 5366SOL    HW119892   0.622   8.246   5.788
 5366SOL    HW219893   0.520   8.210   5.910
 5367SOL     OW19894   1.281   7.793   6.530
 5367SOL    HW119895   1.195   7.743   6.517
 5367SOL    HW219896   1.343   7.739   6.586
 5368SOL     OW19897   1.576   9.110   5.893
 5368SOL    HW119898   1.665   9.156   5.896
 5368SOL    HW219899   1.555   9.086   5.798
 5369SOL     OW19900   0.807   8.053   7.051
 5369SOL    HW119901   0.760   8.050   7.140
 5369SOL    HW219902   0.756   7.998   6.985
 5370SOL     OW19903   1.394   7.917   7.260
 5370SOL    HW119904   1.374   7.960   7.348
 5370SOL    HW219905   1.472   7.855   7.269
 5371SOL     OW19906   0.991   7.858   6.828
 5371SOL    HW119907   0.914   7.892   6.882
 5371SOL    HW219908   0.957   7.807   6.749
 5372SOL     OW19909   1.041   8.149   6.015
 5372SOL    HW119910   1.067   8.145   6.111
 5372SOL    HW219911   0.956   8.098   6.001
 5373SOL     OW19912   0.076   8.259   6.375
 5373SOL    HW119913   0.175   8.247   6.384
 5373SOL    HW219914   0.052   8.354   6.396
 5374SOL     OW19915   0.865   7.796   5.781
 5374SOL    HW119916   0.924   7.859   5.732
 5374SOL    HW219917   0.884   7.702   5.752
 5375SOL     OW19918   1.719   8.033   7.417
 5375SOL    HW119919   1.693   8.122   7.381
 5375SOL    HW219920   1.717   7.965   7.344
 5376SOL     OW19921   1.362   8.592   6.131
 5376SOL    HW119922   1.445   8.563   6.083
 5376SOL    HW219923   1.313   8.659   6.075
 5377SOL     OW19924   0.550   7.644   6.471
 5377SOL    HW119925   0.545   7.639   6.571
 5377SOL    HW219926   0.552   7.740   6.442
 5378SOL     OW19927   1.008   8.904   6.063
 5378SOL    HW119928   0.962   8.976   6.011
 5378SOL    HW219929   1.004   8.924   6.161
 5379SOL     OW19930   0.351   9.249   6.439
 5379SOL    HW119931   0.401   9.163   6.445
 5379SOL    HW219932   0.416   9.326   6.436
 5380SOL     OW19933   1.795   8.514   6.459
 5380SOL    HW119934   1.733   8.499   6.383
 5380SOL    HW219935   1.743   8.525   6.544
 5381SOL     OW19936   1.227   8.998   7.092
 5381SOL    HW119937   1.233   8.921   7.156
 5381SOL    HW219938   1.175   8.972   7.012
 5382SOL     OW19939   0.321   8.391   5.828
 5382SOL    HW119940   0.403   8.430   5.786
 5382SOL    HW219941   0.294   8.309   5.779
 5383SOL     OW19942   1.458   8.183   6.314
 5383SOL    HW119943   1.453   8.118   6.389
 5383SOL    HW219944   1.538   8.242   6.327
 5384SOL     OW19945   0.461   8.714   7.313
 5384SOL    HW119946   0.411   8.715   7.227
 5384SOL    HW219947   0.398   8.696   7.389
 5385SOL     OW19948   1.111   9.224   5.823
 5385SOL    HW119949   1.051   9.162   5.873
 5385SOL    HW219950   1.142   9.180   5.738
 5386SOL     OW19951   1.632   8.825   5.667
 5386SOL    HW119952   1.600   8.919   5.657
 5386SOL    HW219953   1.556   8.762   5.655
 5387SOL     OW19954   0.464   9.191   5.909
 5387SOL    HW119955   0.497   9.230   5.995
 5387SOL    HW219956   0.540   9.184   5.844
 5388SOL     OW19957   1.400   7.555   6.012
 5388SOL    HW119958   1.376   7.518   5.922
 5388SOL    HW219959   1.499   7.571   6.016
 5389SOL     OW19960   0.249   9.233   6.827
 5389SOL    HW119961   0.306   9.168   6.877
 5389SOL    HW219962   0.233   9.200   6.734
 5390SOL     OW19963   0.940   9.146   6.490
 5390SOL    HW119964   1.020   9.089   6.511
 5390SOL    HW219965   0.891   9.106   6.413
 5391SOL     OW19966   0.382   8.148   6.066
 5391SOL    HW119967   0.427   8.058   6.063
 5391SOL    HW219968   0.288   8.137   6.099
 5392SOL     OW19969   1.547   7.670   7.315
 5392SOL    HW119970   1.542   7.707   7.407
 5392SOL    HW219971   1.475   7.601   7.303
 5393SOL     OW19972   0.614   7.570   5.703
 5393SOL    HW119973   0.712   7.548   5.710
 5393SOL    HW219974   0.583   7.553   5.610
 5394SOL     OW19975   0.781   7.712   7.335
 5394SOL    HW119976   0.848   7.651   7.378
 5394SOL    HW219977   0.708   7.731   7.400
 5395SOL     OW19978   0.888   8.962   6.781
 5395SOL    HW119979   0.865   8.937   6.687
 5395SOL    HW219980   0.949   8.893   6.820
 5396SOL     OW19981   1.351   8.038   7.019
 5396SOL    HW119982   1.379   7.995   7.104
 5396SOL    HW219983   1.376   8.134   7.020
 5397SOL     OW19984   0.803   8.850   6.510
 5397SOL    HW119985   0.893   8.864   6.468
 5397SOL    HW219986   0.732   8.852   6.439
 5398SOL     OW19987   0.922   7.951   6.485
 5398SOL    HW119988   0.897   7.942   6.389
 5398SOL    HW219989   0.970   7.869   6.516
 5399SOL     OW19990   0.539   7.512   6.098
 5399SOL    HW119991   0.458   7.513   6.156
 5399SOL    HW219992   0.542   7.595   6.043
 5400SOL     OW19993   1.434   8.636   5.627
 5400SOL    HW119994   1.466   8.560   5.684
 5400SOL    HW219995   1.342   8.663   5.657
 5401SOL     OW19996   0.297   7.483   5.757
 5401SOL    HW119997   0.346   7.567   5.736
 5401SOL    HW219998   0.359   7.418   5.802
 5402SOL     OW19999   0.935   7.684   6.066
 5402SOL    HW120000   0.887   7.725   5.988
 5402SOL    HW220001   1.034   7.682   6.047
 5403SOL     OW20002   1.076   8.131   7.050
 5403SOL    HW120003   0.996   8.070   7.053
 5403SOL    HW220004   1.157   8.078   7.026
 5404SOL     OW20005   1.227   9.018   6.379
 5404SOL    HW120006   1.248   9.092   6.314
 5404SOL    HW220007   1.295   9.018   6.452
 5405SOL     OW20008   0.459   8.600   6.327
 5405SOL    HW120009   0.388   8.573   6.392
 5405SOL    HW220010   0.433   8.572   6.234
 5406SOL     OW20011   1.271   9.245   6.177
 5406SOL    HW120012   1.315   9.309   6.113
 5406SOL    HW220013   1.221   9.297   6.247
 5407SOL     OW20014   1.032   7.997   5.602
 5407SOL    HW120015   0.991   8.079   5.563
 5407SOL    HW220016   1.096   8.023   5.675
 5408SOL     OW20017   0.561   7.670   6.733
 5408SOL    HW120018   0.599   7.586   6.770
 5408SOL    HW220019   0.473   7.689   6.777
 5409SOL     OW20020   0.866   7.902   6.228
 5409SOL    HW120021   0.834   7.974   6.166
 5409SOL    HW220022   0.890   7.821   6.175
 5410SOL     OW20023   1.017   7.487   6.339
 5410SOL    HW120024   0.945   7.492   6.270
 5410SOL    HW220025   0.993   7.418   6.408
 5411SOL     OW20026   1.429   8.621   6.453
 5411SOL    HW120027   1.374   8.537   6.446
 5411SOL    HW220028   1.455   8.650   6.361
 5412SOL     OW20029   1.466   8.038   6.578
 5412SOL    HW120030   1.436   7.943   6.585
 5412SOL    HW220031   1.539   8.054   6.644
 5413SOL     OW20032   1.857   8.281   5.963
 5413SOL    HW120033   1.899   8.217   6.027
 5413SOL    HW220034   1.819   8.230   5.885
 5414SOL     OW20035   0.488   8.833   5.760
 5414SOL    HW120036   0.401   8.818   5.807
 5414SOL    HW220037   0.471   8.859   5.665
 5415SOL     OW20038   1.664   8.728   6.243
 5415SOL    HW120039   1.763   8.736   6.257
 5415SOL    HW220040   1.619   8.812   6.274
 5416SOL     OW20041   1.390   8.023   5.664
 5416SOL    HW120042   1.336   8.002   5.745
 5416SOL    HW220043   1.481   7.982   5.673
 5417SOL     OW20044   0.527   7.704   5.914
 5417SOL    HW120045   0.554   7.645   5.839
 5417SOL    HW220046   0.527   7.799   5.883
 5418SOL     OW20047   1.754   8.671   7.174
 5418SOL    HW120048   1.845   8.632   7.161
 5418SOL    HW220049   1.762   8.767   7.198
 5419SOL     OW20050   1.064   8.795   6.926
 5419SOL    HW120051   0.984   8.772   6.981
 5419SOL    HW220052   1.147   8.769   6.975
 5420SOL     OW20053   1.592   9.077   7.211
 5420SOL    HW120054   1.619   9.111   7.121
 5420SOL    HW220055   1.671   9.039   7.257
 5421SOL     OW20056   1.111   8.643   6.686
 5421SOL    HW120057   1.071   8.687   6.767
 5421SOL    HW220058   1.070   8.680   6.603
 5422SOL     OW20059   1.638   8.547   6.665
 5422SOL    HW120060   1.643   8.628   6.724
 5422SOL    HW220061   1.552   8.549   6.614
 5423SOL     OW20062   0.915   7.537   6.988
 5423SOL    HW120063   0.940   7.517   6.893
 5423SOL    HW220064   0.987   7.593   7.030
 5424SOL     OW20065   0.705   8.498   5.954
 5424SOL    HW120066   0.691   8.505   6.053
 5424SOL    HW220067   0.789   8.447   5.936
 5425SOL     OW20068   0.410   8.261   6.837
 5425SOL    HW120069   0.496   8.273   6.887
 5425SOL    HW220070   0.368   8.174   6.864
 5426SOL     OW20071   1.274   7.834   6.848
 5426SOL    HW120072   1.295   7.908   6.912
 5426SOL    HW220073   1.185   7.851   6.805
 5427SOL     OW20074   0.367   8.548   6.087
 5427SOL    HW120075   0.360   8.631   6.031
 5427SOL    HW220076   0.371   8.468   6.027
 5428SOL     OW20077   0.566   7.985   6.451
 5428SOL    HW120078   0.578   8.051   6.377
 5428SOL    HW220079   0.612   8.019   6.534
 5429SOL     OW20080   1.252   8.796   5.974
 5429SOL    HW120081   1.302   8.873   6.014
 5429SOL    HW220082   1.157   8.798   6.006
 5430SOL     OW20083   1.272   8.893   6.728
 5430SOL    HW120084   1.319   8.906   6.815
 5430SOL    HW220085   1.206   8.819   6.737
 5431SOL     OW20086   1.582   8.087   6.058
 5431SOL    HW120087   1.551   8.148   6.131
 5431SOL    HW220088   1.632   8.139   5.989
 5432SOL     OW20089   0.354   8.958   6.915
 5432SOL    HW120090   0.333   8.914   6.828
 5432SOL    HW220091   0.451   8.984   6.918
 5433SOL     OW20092   0.402   8.199   7.184
 5433SOL    HW120093   0.470   8.254   7.137
 5433SOL    HW220094   0.442   8.111   7.211
 5434SOL     OW20095   1.587   8.227   7.256
 5434SOL    HW120096   1.495   8.265   7.251
 5434SOL    HW220097   1.647   8.274   7.191
 5435SOL     OW20098   1.013   7.553   7.356
 5435SOL    HW120099   1.019   7.638   7.304
 5435SOL    HW220100   1.045   7.477   7.299
 5436SOL     OW20101   0.504   7.498   7.326
 5436SOL    HW120102   0.462   7.441   7.256
 5436SOL    HW220103   0.438   7.567   7.358
 5437SOL     OW20104   0.573   8.318   6.615
 5437SOL    HW120105   0.617   8.407   6.606
 5437SOL    HW220106   0.510   8.318   6.692
 5438SOL     OW20107   1.360   8.310   6.631
 5438SOL    HW120108   1.285   8.310   6.565
 5438SOL    HW220109   1.397   8.218   6.640
 5439SOL     OW20110   1.209   7.973   5.861
 5439SOL    HW120111   1.222   7.889   5.915
 5439SOL    HW220112   1.180   8.047   5.921
 5440SOL     OW20113   0.307   7.661   6.817
 5440SOL    HW120114   0.284   7.698   6.907
 5440SOL    HW220115   0.277   7.566   6.811
 5441SOL     OW20116   0.732   8.082   6.650
 5441SOL    HW120117   0.791   8.056   6.574
 5441SOL    HW220118   0.704   8.178   6.639
 5442SOL     OW20119   1.728   8.383   7.440
 5442SOL    HW120120   1.682   8.376   7.351
 5442SOL    HW220121   1.666   8.427   7.506
 5443SOL     OW20122   0.307   7.511   6.204
 5443SOL    HW120123   0.296   7.605   6.237
 5443SOL    HW220124   0.302   7.448   6.281
 5444SOL     OW20125   1.622   7.815   5.960
 5444SOL    HW120126   1.624   7.739   6.024
 5444SOL    HW220127   1.574   7.892   6.000
 5445SOL     OW20128   1.023   8.214   6.552
 5445SOL    HW120129   1.038   8.235   6.648
 5445SOL    HW220130   0.993   8.119   6.543
 5446SOL     OW20131   0.980   9.021   7.286
 5446SOL    HW120132   0.960   9.065   7.198
 5446SOL    HW220133   1.019   8.930   7.270
 5447SOL     OW20134   1.859   8.966   7.191
 5447SOL    HW120135   1.873   8.993   7.096
 5447SOL    HW220136   1.942   8.988   7.244
 5448SOL     OW20137   1.540   7.722   5.711
 5448SOL    HW120138   1.479   7.647   5.734
 5448SOL    HW220139   1.562   7.774   5.794
 5449SOL     OW20140   1.303   8.286   5.628
 5449SOL    HW120141   1.337   8.193   5.643
 5449SOL    HW220142   1.321   8.313   5.533
 5450SOL     OW20143   1.068   8.781   6.435
 5450SOL    HW120144   1.075   8.697   6.380
 5450SOL    HW220145   1.130   8.850   6.399
 5451SOL     OW20146   0.319   8.258   6.535
 5451SOL    HW120147   0.412   8.294   6.540
 5451SOL    HW220148   0.313   8.173   6.587
 5452SOL     OW20149   0.339   7.957   6.592
 5452SOL    HW120150   0.287   7.874   6.575
 5452SOL    HW220151   0.416   7.962   6.528
 5453SOL     OW20152   1.138   7.828   7.264
 5453SOL    HW120153   1.093   7.891   7.328
 5453SOL    HW220154   1.231   7.859   7.247
 5454SOL     OW20155   1.160   7.655   7.063
 5454SOL    HW120156   1.160   7.719   7.140
 5454SOL    HW220157   1.188   7.703   6.980
 5455SOL     OW20158   0.008   8.774   5.786
 5455SOL    HW120159  -0.085   8.795   5.755
 5455SOL    HW220160   0.018   8.675   5.799
 5456SOL     OW20161   0.088   9.249   6.513
 5456SOL    HW120162   0.046   9.163   6.486
 5456SOL    HW220163   0.182   9.252   6.479
 5457SOL     OW20164   0.504   9.016   6.496
 5457SOL    HW120165   0.570   9.090   6.505
 5457SOL    HW220166   0.548   8.937   6.454
 5458SOL     OW20167   1.002   8.244   6.824
 5458SOL    HW120168   1.043   8.212   6.910
 5458SOL    HW220169   0.906   8.217   6.821
 5459SOL     OW20170   0.040   7.992   6.700
 5459SOL    HW120171   0.125   7.959   6.659
 5459SOL    HW220172   0.053   8.007   6.798
 5460SOL     OW20173   0.189   7.968   7.308
 5460SOL    HW120174   0.248   7.928   7.238
 5460SOL    HW220175   0.131   8.039   7.267
 5461SOL     OW20176   1.369   8.398   7.246
 5461SOL    HW120177   1.408   8.487   7.266
 5461SOL    HW220178   1.379   8.378   7.149
 5462SOL     OW20179   0.815   8.020   5.911
 5462SOL    HW120180   0.822   7.931   5.865
 5462SOL    HW220181   0.721   8.054   5.903
 5463SOL     OW20182   1.657   8.052   6.792
 5463SOL    HW120183   1.619   7.983   6.854
 5463SOL    HW220184   1.739   8.016   6.748
 5464SOL     OW20185   0.252   9.012   7.330
 5464SOL    HW120186   0.222   9.069   7.406
 5464SOL    HW220187   0.245   8.915   7.356
 5465SOL     OW20188   0.671   7.912   6.855
 5465SOL    HW120189   0.637   7.823   6.825
 5465SOL    HW220190   0.697   7.966   6.775
 5466SOL     OW20191   0.930   9.126   7.051
 5466SOL    HW120192   0.906   9.108   6.956
 5466SOL    HW220193   0.960   9.220   7.061
 5467SOL     OW20194   0.473   7.948   5.777
 5467SOL    HW120195   0.534   8.028   5.781
 5467SOL    HW220196   0.378   7.979   5.784
 5468SOL     OW20197   0.159   8.585   7.052
 5468SOL    HW120198   0.181   8.524   7.128
 5468SOL    HW220199   0.169   8.536   6.966
 5469SOL     OW20200   1.347   8.507   6.820
 5469SOL    HW120201   1.371   8.444   6.746
 5469SOL    HW220202   1.257   8.547   6.802
 5470SOL     OW20203   1.302   8.303   5.895
 5470SOL    HW120204   1.216   8.272   5.937
 5470SOL    HW220205   1.298   8.289   5.796
 5471SOL     OW20206   1.759   9.195   6.740
 5471SOL    HW120207   1.820   9.225   6.667
 5471SOL    HW220208   1.721   9.106   6.718
 5472SOL     OW20209   1.252   9.179   6.714
 5472SOL    HW120210   1.336   9.184   6.660
 5472SOL    HW220211   1.229   9.083   6.732
 5473SOL     OW20212   0.688   9.110   7.302
 5473SOL    HW120213   0.632   9.191   7.311
 5473SOL    HW220214   0.740   9.114   7.216
 5474SOL     OW20215   1.726   7.583   6.109
 5474SOL    HW120216   1.799   7.566   6.042
 5474SOL    HW220217   1.695   7.496   6.147
 5475SOL     OW20218   1.388   9.021   6.063
 5475SOL    HW120219   1.455   9.033   5.989
 5475SOL    HW220220   1.348   9.110   6.086
 5476SOL     OW20221   0.130   9.242   7.437
 5476SOL    HW120222   0.089   9.168   7.490
 5476SOL    HW220223   0.194   9.293   7.495
 5477SOL     OW20224   1.280   8.375   6.258
 5477SOL    HW120225   1.340   8.294   6.260
 5477SOL    HW220226   1.320   8.444   6.198
 5478SOL     OW20227   0.830   8.721   7.008
 5478SOL    HW120228   0.825   8.754   7.103
 5478SOL    HW220229   0.744   8.740   6.962
 5479SOL     OW20230   0.672   9.064   5.740
 5479SOL    HW120231   0.681   9.074   5.641
 5479SOL    HW220232   0.632   8.975   5.761
 5480SOL     OW20233   1.650   9.168   6.980
 5480SOL    HW120234   1.703   9.178   6.896
 5480SOL    HW220235   1.623   9.258   7.014
 5481SOL     OW20236   1.841   7.623   6.549
 5481SOL    HW120237   1.880   7.538   6.513
 5481SOL    HW220238   1.743   7.625   6.530
 5482SOL     OW20239   0.263   7.774   6.306
 5482SOL    HW120240   0.184   7.825   6.272
 5482SOL    HW220241   0.254   7.759   6.404
 5483SOL     OW20242   1.194   9.060   5.617
 5483SOL    HW120243   1.200   8.967   5.654
 5483SOL    HW220244   1.135   9.060   5.537
 5484SOL     OW20245   0.822   8.450   6.958
 5484SOL    HW120246   0.862   8.449   6.866
 5484SOL    HW220247   0.832   8.542   6.998
 5485SOL     OW20248   0.916   8.358   5.877
 5485SOL    HW120249   0.979   8.396   5.809
 5485SOL    HW220250   0.956   8.275   5.916
 5486SOL     OW20251   1.504   9.055   5.630
 5486SOL    HW120252   1.412   9.092   5.637
 5486SOL    HW220253   1.542   9.075   5.540
 5487SOL     OW20254   0.372   8.736   7.076
 5487SOL    HW120255   0.359   8.829   7.042
 5487SOL    HW220256   0.288   8.684   7.063
 5488SOL     OW20257   1.614   8.740   6.875
 5488SOL    HW120258   1.674   8.743   6.955
 5488SOL    HW220259   1.539   8.804   6.888
 5489SOL     OW20260   1.039   8.546   6.282
 5489SOL    HW120261   0.969   8.499   6.336
 5489SOL    HW220262   1.098   8.478   6.239
 5490SOL     OW20263   1.014   7.684   6.557
 5490SOL    HW120264   1.006   7.648   6.464
 5490SOL    HW220265   1.012   7.608   6.622
 5491SOL     OW20266   0.590   8.935   6.077
 5491SOL    HW120267   0.632   8.877   6.007
 5491SOL    HW220268   0.546   9.014   6.033
 5492SOL     OW20269   1.709   7.833   6.967
 5492SOL    HW120270   1.782   7.902   6.971
 5492SOL    HW220271   1.737   7.758   6.908
 5493SOL     OW20272   0.255   8.796   5.876
 5493SOL    HW120273   0.159   8.797   5.849
 5493SOL    HW220274   0.267   8.849   5.960
 5494SOL     OW20275   0.672   7.651   7.075
 5494SOL    HW120276   0.762   7.635   7.035
 5494SOL    HW220277   0.680   7.656   7.174
 5495SOL     OW20278   0.075   7.793   5.619
 5495SOL    HW120279  -0.017   7.765   5.590
 5495SOL    HW220280   0.106   7.870   5.563
 5496SOL     OW20281   1.440   8.304   6.984
 5496SOL    HW120282   1.383   8.356   6.921
 5496SOL    HW220283   1.536   8.316   6.960
 5497SOL     OW20284   0.072   7.614   5.904
 5497SOL    HW120285   0.055   7.697   5.850
 5497SOL    HW220286   0.162   7.577   5.882
 5498SOL     OW20287   1.183   8.783   5.705
 5498SOL    HW120288   1.084   8.772   5.707
 5498SOL    HW220289   1.217   8.798   5.798
 5499SOL     OW20290   0.613   8.290   7.017
 5499SOL    HW120291   0.669   8.371   7.000
 5499SOL    HW220292   0.672   8.210   7.020
 5500SOL     OW20293   1.493   9.215   6.545
 5500SOL    HW120294   1.526   9.279   6.476
 5500SOL    HW220295   1.559   9.209   6.620
 5501SOL     OW20296   0.716   8.013   7.294
 5501SOL    HW120297   0.735   8.078   7.368
 5501SOL    HW220298   0.776   7.933   7.303
 5502SOL     OW20299   1.450   8.668   7.219
 5502SOL    HW120300   1.441   8.658   7.318
 5502SOL    HW220301   1.546   8.661   7.193
 5503SOL     OW20302   0.390   9.189   7.146
 5503SOL    HW120303   0.299   9.230   7.144
 5503SOL    HW220304   0.383   9.095   7.178
 5504SOL     OW20305   1.674   8.331   6.840
 5504SOL    HW120306   1.647   8.242   6.803
 5504SOL    HW220307   1.675   8.399   6.767
 5505SOL     OW20308   1.225   7.773   6.035
 5505SOL    HW120309   1.290   7.699   6.024
 5505SOL    HW220310   1.245   7.823   6.119
 5506SOL     OW20311   0.594   8.193   6.238
 5506SOL    HW120312   0.644   8.278   6.219
 5506SOL    HW220313   0.506   8.195   6.190
 5507SOL     OW20314   1.777   7.790   7.228
 5507SOL    HW120315   1.760   7.821   7.134
 5507SOL    HW220316   1.693   7.753   7.266
 5508SOL     OW20317   1.730   8.382   7.103
 5508SOL    HW120318   1.768   8.473   7.118
 5508SOL    HW220319   1.722   8.365   7.004
 5509SOL     OW20320   0.859   8.822   5.602
 5509SOL    HW120321   0.813   8.837   5.690
 5509SOL    HW220322   0.903   8.907   5.572
 5510SOL     OW20323   0.661   9.238   6.539
 5510SOL    HW120324   0.615   9.326   6.526
 5510SOL    HW220325   0.760   9.250   6.532
 5511SOL     OW20326   0.859   8.404   6.447
 5511SOL    HW120327   0.913   8.335   6.495
 5511SOL    HW220328   0.827   8.473   6.513
 5512SOL     OW20329   1.083   8.432   5.673
 5512SOL    HW120330   1.060   8.485   5.591
 5512SOL    HW220331   1.164   8.376   5.654
 5513SOL     OW20332   1.861   9.017   6.437
 5513SOL    HW120333   1.790   9.005   6.367
 5513SOL    HW220334   1.862   8.938   6.497
 5514SOL     OW20335   0.221   8.762   7.430
 5514SOL    HW120336   0.156   8.689   7.409
 5514SOL    HW220337   0.225   8.776   7.528
 5515SOL     OW20338   0.079   8.688   6.239
 5515SOL    HW120339   0.078   8.641   6.327
 5515SOL    HW220340   0.161   8.660   6.188
 5516SOL     OW20341   0.672   8.839   7.210
 5516SOL    HW120342   0.594   8.789   7.248
 5516SOL    HW220343   0.669   8.934   7.241
 5517SOL     OW20344   1.824   7.640   6.813
 5517SOL    HW120345   1.820   7.550   6.857
 5517SOL    HW220346   1.827   7.629   6.714
 5518SOL     OW20347   0.428   7.872   6.106
 5518SOL    HW120348   0.458   7.800   6.044
 5518SOL    HW220349   0.389   7.832   6.189
 5519SOL     OW20350   1.705   8.935   6.690
 5519SOL    HW120351   1.612   8.910   6.663
 5519SOL    HW220352   1.731   8.885   6.772
 5520SOL     OW20353   0.317   7.995   6.866
 5520SOL    HW120354   0.355   7.936   6.938
 5520SOL    HW220355   0.357   7.969   6.778
 5521SOL     OW20356   0.812   9.034   6.273
 5521SOL    HW120357   0.844   9.044   6.179
 5521SOL    HW220358   0.733   8.972   6.275
 5522SOL     OW20359   1.424   7.662   6.698
 5522SOL    HW120360   1.476   7.597   6.753
 5522SOL    HW220361   1.375   7.725   6.759
 5523SOL     OW20362   1.001   7.482   6.740
 5523SOL    HW120363   0.938   7.410   6.709
 5523SOL    HW220364   1.094   7.446   6.740
 5524SOL     OW20365   0.770   8.778   5.887
 5524SOL    HW120366   0.724   8.691   5.904
 5524SOL    HW220367   0.861   8.775   5.928
 5525SOL     OW20368   0.618   9.015   6.870
 5525SOL    HW120369   0.613   9.097   6.927
 5525SOL    HW220370   0.707   9.012   6.825
 5526SOL     OW20371   1.352   7.500   5.754
 5526SOL    HW120372   1.387   7.459   5.670
 5526SOL    HW220373   1.262   7.462   5.774
 5527SOL     OW20374   1.300   7.901   6.277
 5527SOL    HW120375   1.241   7.981   6.281
 5527SOL    HW220376   1.315   7.866   6.370
 5528SOL     OW20377   1.593   7.669   6.468
 5528SOL    HW120378   1.509   7.668   6.522
 5528SOL    HW220379   1.595   7.752   6.412
 5529SOL     OW20380   0.039   8.525   5.886
 5529SOL    HW120381   0.138   8.514   5.877
 5529SOL    HW220382  -0.001   8.439   5.918
 5530SOL     OW20383   0.875   9.094   5.923
 5530SOL    HW120384   0.798   9.059   5.869
 5530SOL    HW220385   0.843   9.165   5.985
 5531SOL     OW20386   0.225   7.723   8.444
 5531SOL    HW120387   0.260   7.706   8.536
 5531SOL    HW220388   0.137   7.678   8.432
 5532SOL     OW20389   0.019   7.816   8.095
 5532SOL    HW120390  -0.063   7.859   8.134
 5532SOL    HW220391  -0.009   7.743   8.032
 5533SOL     OW20392   0.569   8.723   8.613
 5533SOL    HW120393   0.476   8.716   8.576
 5533SOL    HW220394   0.580   8.812   8.657
 5534SOL     OW20395   1.555   8.959   8.151
 5534SOL    HW120396   1.498   8.943   8.232
 5534SOL    HW220397   1.496   8.969   8.071
 5535SOL     OW20398   1.135   8.151   8.165
 5535SOL    HW120399   1.192   8.229   8.140
 5535SOL    HW220400   1.075   8.177   8.241
 5536SOL     OW20401   1.755   8.055   7.679
 5536SOL    HW120402   1.743   8.042   7.580
 5536SOL    HW220403   1.725   7.974   7.728
 5537SOL     OW20404   0.850   8.246   9.271
 5537SOL    HW120405   0.846   8.322   9.336
 5537SOL    HW220406   0.872   8.282   9.180
 5538SOL     OW20407   0.685   8.460   8.113
 5538SOL    HW120408   0.754   8.444   8.183
 5538SOL    HW220409   0.612   8.517   8.151
 5539SOL     OW20410   0.335   8.883   8.509
 5539SOL    HW120411   0.257   8.852   8.456
 5539SOL    HW220412   0.393   8.941   8.452
 5540SOL     OW20413   1.460   8.953   8.787
 5540SOL    HW120414   1.484   9.047   8.813
 5540SOL    HW220415   1.444   8.899   8.869
 5541SOL     OW20416   0.438   7.840   8.947
 5541SOL    HW120417   0.520   7.784   8.956
 5541SOL    HW220418   0.357   7.782   8.951
 5542SOL     OW20419   1.603   7.895   8.185
 5542SOL    HW120420   1.529   7.941   8.135
 5542SOL    HW220421   1.654   7.963   8.238
 5543SOL     OW20422   0.231   9.161   7.931
 5543SOL    HW120423   0.265   9.238   7.985
 5543SOL    HW220424   0.275   9.161   7.841
 5544SOL     OW20425   1.127   8.789   9.138
 5544SOL    HW120426   1.174   8.789   9.226
 5544SOL    HW220427   1.079   8.702   9.127
 5545SOL     OW20428   0.230   8.882   7.986
 5545SOL    HW120429   0.204   8.978   7.986
 5545SOL    HW220430   0.159   8.828   8.031
 5546SOL     OW20431   0.240   8.539   8.334
 5546SOL    HW120432   0.254   8.455   8.386
 5546SOL    HW220433   0.185   8.603   8.389
 5547SOL     OW20434   0.620   9.234   8.887
 5547SOL    HW120435   0.528   9.217   8.922
 5547SOL    HW220436   0.648   9.326   8.913
 5548SOL     OW20437   1.594   7.562   8.928
 5548SOL    HW120438   1.576   7.629   8.856
 5548SOL    HW220439   1.591   7.608   9.017
 5549SOL     OW20440   0.122   8.091   8.011
 5549SOL    HW120441   0.077   8.003   8.028
 5549SOL    HW220442   0.121   8.145   8.095
 5550SOL     OW20443   1.842   9.215   7.807
 5550SOL    HW120444   1.896   9.186   7.887
 5550SOL    HW220445   1.872   9.305   7.778
 5551SOL     OW20446   0.027   9.044   7.565
 5551SOL    HW120447   0.008   8.948   7.586
 5551SOL    HW220448  -0.006   9.102   7.640
 5552SOL     OW20449   1.689   8.370   8.060
 5552SOL    HW120450   1.784   8.341   8.068
 5552SOL    HW220451   1.681   8.435   7.985
 5553SOL     OW20452   1.641   8.556   7.880
 5553SOL    HW120453   1.727   8.558   7.828
 5553SOL    HW220454   1.655   8.603   7.968
 5554SOL     OW20455   0.113   8.185   9.045
 5554SOL    HW120456   0.201   8.172   9.090
 5554SOL    HW220457   0.100   8.282   9.023
 5555SOL     OW20458   1.293   8.676   8.871
 5555SOL    HW120459   1.330   8.603   8.813
 5555SOL    HW220460   1.345   8.681   8.956
 5556SOL     OW20461   0.809   7.452   7.950
 5556SOL    HW120462   0.849   7.543   7.941
 5556SOL    HW220463   0.709   7.460   7.956
 5557SOL     OW20464   0.197   8.424   8.712
 5557SOL    HW120465   0.286   8.379   8.698
 5557SOL    HW220466   0.124   8.359   8.693
 5558SOL     OW20467   1.525   8.447   7.638
 5558SOL    HW120468   1.462   8.371   7.651
 5558SOL    HW220469   1.573   8.465   7.724
 5559SOL     OW20470   1.187   9.240   9.064
 5559SOL    HW120471   1.211   9.300   8.988
 5559SOL    HW220472   1.194   9.145   9.034
 5560SOL     OW20473   0.317   7.699   9.249
 5560SOL    HW120474   0.388   7.770   9.255
 5560SOL    HW220475   0.229   7.738   9.277
 5561SOL     OW20476   1.466   8.865   8.401
 5561SOL    HW120477   1.407   8.871   8.481
 5561SOL    HW220478   1.451   8.777   8.355
 5562SOL     OW20479   1.667   9.162   8.020
 5562SOL    HW120480   1.626   9.139   7.932
 5562SOL    HW220481   1.649   9.088   8.085
 5563SOL     OW20482   0.598   8.177   7.718
 5563SOL    HW120483   0.622   8.246   7.650
 5563SOL    HW220484   0.520   8.210   7.772
 5564SOL     OW20485   1.576   9.110   7.755
 5564SOL    HW120486   1.665   9.156   7.758
 5564SOL    HW220487   1.555   9.086   7.660
 5565SOL     OW20488   0.807   8.053   8.913
 5565SOL    HW120489   0.760   8.050   9.002
 5565SOL    HW220490   0.756   7.998   8.847
 5566SOL     OW20491   1.394   7.917   9.122
 5566SOL    HW120492   1.374   7.960   9.210
 5566SOL    HW220493   1.472   7.855   9.131
 5567SOL     OW20494   0.973   8.338   9.020
 5567SOL    HW120495   1.019   8.254   8.991
 5567SOL    HW220496   0.917   8.372   8.945
 5568SOL     OW20497   0.991   7.858   8.690
 5568SOL    HW120498   0.914   7.892   8.744
 5568SOL    HW220499   0.957   7.807   8.611
 5569SOL     OW20500   1.041   8.149   7.877
 5569SOL    HW120501   1.067   8.145   7.973
 5569SOL    HW220502   0.956   8.098   7.863
 5570SOL     OW20503   0.076   8.259   8.237
 5570SOL    HW120504   0.175   8.247   8.246
 5570SOL    HW220505   0.052   8.354   8.258
 5571SOL     OW20506   0.130   9.269   9.019
 5571SOL    HW120507   0.120   9.254   9.118
 5571SOL    HW220508   0.044   9.305   8.983
 5572SOL     OW20509   0.865   7.796   7.643
 5572SOL    HW120510   0.924   7.859   7.594
 5572SOL    HW220511   0.884   7.702   7.614
 5573SOL     OW20512   1.719   8.033   9.279
 5573SOL    HW120513   1.693   8.122   9.243
 5573SOL    HW220514   1.717   7.965   9.206
 5574SOL     OW20515   1.362   8.592   7.993
 5574SOL    HW120516   1.445   8.563   7.945
 5574SOL    HW220517   1.313   8.659   7.937
 5575SOL     OW20518   0.550   7.644   8.333
 5575SOL    HW120519   0.545   7.639   8.433
 5575SOL    HW220520   0.552   7.740   8.304
 5576SOL     OW20521   0.351   9.249   8.301
 5576SOL    HW120522   0.401   9.163   8.307
 5576SOL    HW220523   0.416   9.326   8.298
 5577SOL     OW20524   1.795   8.514   8.321
 5577SOL    HW120525   1.733   8.499   8.245
 5577SOL    HW220526   1.743   8.525   8.406
 5578SOL     OW20527   1.227   8.998   8.954
 5578SOL    HW120528   1.233   8.921   9.018
 5578SOL    HW220529   1.175   8.972   8.874
 5579SOL     OW20530   1.458   8.183   8.176
 5579SOL    HW120531   1.453   8.118   8.251
 5579SOL    HW220532   1.538   8.242   8.189
 5580SOL     OW20533   0.461   8.714   9.175
 5580SOL    HW120534   0.411   8.715   9.089
 5580SOL    HW220535   0.398   8.696   9.251
 5581SOL     OW20536   1.111   9.224   7.685
 5581SOL    HW120537   1.051   9.162   7.735
 5581SOL    HW220538   1.142   9.180   7.600
 5582SOL     OW20539   0.202   7.733   8.946
 5582SOL    HW120540   0.122   7.793   8.933
 5582SOL    HW220541   0.192   7.684   9.032
 5583SOL     OW20542   1.632   8.825   7.529
 5583SOL    HW120543   1.600   8.919   7.519
 5583SOL    HW220544   1.556   8.762   7.517
 5584SOL     OW20545   0.464   9.191   7.771
 5584SOL    HW120546   0.497   9.230   7.857
 5584SOL    HW220547   0.540   9.184   7.706
 5585SOL     OW20548   1.400   7.555   7.874
 5585SOL    HW120549   1.376   7.518   7.784
 5585SOL    HW220550   1.499   7.571   7.878
 5586SOL     OW20551   0.249   9.233   8.689
 5586SOL    HW120552   0.306   9.168   8.739
 5586SOL    HW220553   0.233   9.200   8.596
 5587SOL     OW20554   0.940   9.146   8.352
 5587SOL    HW120555   1.020   9.089   8.373
 5587SOL    HW220556   0.891   9.106   8.275
 5588SOL     OW20557   0.382   8.148   7.928
 5588SOL    HW120558   0.427   8.058   7.925
 5588SOL    HW220559   0.288   8.137   7.961
 5589SOL     OW20560   1.547   7.670   9.177
 5589SOL    HW120561   1.542   7.707   9.269
 5589SOL    HW220562   1.475   7.601   9.165
 5590SOL     OW20563   0.614   7.570   7.565
 5590SOL    HW120564   0.712   7.548   7.572
 5590SOL    HW220565   0.583   7.553   7.472
 5591SOL     OW20566   0.781   7.712   9.197
 5591SOL    HW120567   0.848   7.651   9.240
 5591SOL    HW220568   0.708   7.731   9.262
 5592SOL     OW20569   0.888   8.962   8.643
 5592SOL    HW120570   0.865   8.937   8.549
 5592SOL    HW220571   0.949   8.893   8.682
 5593SOL     OW20572   1.351   8.038   8.881
 5593SOL    HW120573   1.379   7.995   8.966
 5593SOL    HW220574   1.376   8.134   8.882
 5594SOL     OW20575   0.922   7.951   8.347
 5594SOL    HW120576   0.897   7.942   8.251
 5594SOL    HW220577   0.970   7.869   8.378
 5595SOL     OW20578   0.539   7.512   7.960
 5595SOL    HW120579   0.458   7.513   8.018
 5595SOL    HW220580   0.542   7.595   7.905
 5596SOL     OW20581   1.434   8.636   7.489
 5596SOL    HW120582   1.466   8.560   7.546
 5596SOL    HW220583   1.342   8.663   7.519
 5597SOL     OW20584   0.297   7.483   7.619
 5597SOL    HW120585   0.346   7.567   7.598
 5597SOL    HW220586   0.359   7.418   7.664
 5598SOL     OW20587   0.935   7.684   7.928
 5598SOL    HW120588   0.887   7.725   7.850
 5598SOL    HW220589   1.034   7.682   7.909
 5599SOL     OW20590   1.076   8.131   8.912
 5599SOL    HW120591   0.996   8.070   8.915
 5599SOL    HW220592   1.157   8.078   8.888
 5600SOL     OW20593   1.227   9.018   8.241
 5600SOL    HW120594   1.248   9.092   8.176
 5600SOL    HW220595   1.295   9.018   8.314
 5601SOL     OW20596   0.459   8.600   8.189
 5601SOL    HW120597   0.388   8.573   8.254
 5601SOL    HW220598   0.433   8.572   8.096
 5602SOL     OW20599   1.271   9.245   8.039
 5602SOL    HW120600   1.315   9.309   7.975
 5602SOL    HW220601   1.221   9.297   8.109
 5603SOL     OW20602   1.032   7.997   7.464
 5603SOL    HW120603   0.991   8.079   7.425
 5603SOL    HW220604   1.096   8.023   7.537
 5604SOL     OW20605   0.078   8.004   8.834
 5604SOL    HW120606   0.170   8.003   8.793
 5604SOL    HW220607   0.072   8.078   8.901
 5605SOL     OW20608   0.561   7.670   8.595
 5605SOL    HW120609   0.599   7.586   8.632
 5605SOL    HW220610   0.473   7.689   8.639
 5606SOL     OW20611   0.866   7.902   8.090
 5606SOL    HW120612   0.834   7.974   8.028
 5606SOL    HW220613   0.890   7.821   8.037
 5607SOL     OW20614   1.017   7.487   8.201
 5607SOL    HW120615   0.945   7.492   8.132
 5607SOL    HW220616   0.993   7.418   8.270
 5608SOL     OW20617   1.429   8.621   8.315
 5608SOL    HW120618   1.374   8.537   8.308
 5608SOL    HW220619   1.455   8.650   8.223
 5609SOL     OW20620   1.466   8.038   8.440
 5609SOL    HW120621   1.436   7.943   8.447
 5609SOL    HW220622   1.539   8.054   8.506
 5610SOL     OW20623   1.857   8.281   7.825
 5610SOL    HW120624   1.899   8.217   7.889
 5610SOL    HW220625   1.819   8.230   7.747
 5611SOL     OW20626   0.488   8.833   7.622
 5611SOL    HW120627   0.401   8.818   7.669
 5611SOL    HW220628   0.471   8.859   7.527
 5612SOL     OW20629   1.664   8.728   8.105
 5612SOL    HW120630   1.763   8.736   8.119
 5612SOL    HW220631   1.619   8.812   8.136
 5613SOL     OW20632   1.390   8.023   7.526
 5613SOL    HW120633   1.336   8.002   7.607
 5613SOL    HW220634   1.481   7.982   7.535
 5614SOL     OW20635   0.527   7.704   7.776
 5614SOL    HW120636   0.554   7.645   7.701
 5614SOL    HW220637   0.527   7.799   7.745
 5615SOL     OW20638   1.754   8.671   9.036
 5615SOL    HW120639   1.845   8.632   9.023
 5615SOL    HW220640   1.762   8.767   9.060
 5616SOL     OW20641   1.064   8.795   8.788
 5616SOL    HW120642   0.984   8.772   8.843
 5616SOL    HW220643   1.147   8.769   8.837
 5617SOL     OW20644   1.592   9.077   9.073
 5617SOL    HW120645   1.619   9.111   8.983
 5617SOL    HW220646   1.671   9.039   9.119
 5618SOL     OW20647   1.111   8.643   8.548
 5618SOL    HW120648   1.071   8.687   8.629
 5618SOL    HW220649   1.070   8.680   8.465
 5619SOL     OW20650   1.638   8.547   8.527
 5619SOL    HW120651   1.643   8.628   8.586
 5619SOL    HW220652   1.552   8.549   8.476
 5620SOL     OW20653   0.915   7.537   8.850
 5620SOL    HW120654   0.940   7.517   8.755
 5620SOL    HW220655   0.987   7.593   8.892
 5621SOL     OW20656   0.980   8.564   9.167
 5621SOL    HW120657   0.881   8.570   9.177
 5621SOL    HW220658   1.003   8.484   9.111
 5622SOL     OW20659   0.705   8.498   7.816
 5622SOL    HW120660   0.691   8.505   7.915
 5622SOL    HW220661   0.789   8.447   7.798
 5623SOL     OW20662   0.410   8.261   8.699
 5623SOL    HW120663   0.496   8.273   8.749
 5623SOL    HW220664   0.368   8.174   8.726
 5624SOL     OW20665   0.064   9.012   8.779
 5624SOL    HW120666   0.018   9.094   8.745
 5624SOL    HW220667   0.162   9.031   8.788
 5625SOL     OW20668   0.367   8.548   7.949
 5625SOL    HW120669   0.360   8.631   7.893
 5625SOL    HW220670   0.371   8.468   7.889
 5626SOL     OW20671   0.566   7.985   8.313
 5626SOL    HW120672   0.578   8.051   8.239
 5626SOL    HW220673   0.612   8.019   8.396
 5627SOL     OW20674   1.252   8.796   7.836
 5627SOL    HW120675   1.302   8.873   7.876
 5627SOL    HW220676   1.157   8.798   7.868
 5628SOL     OW20677   1.272   8.893   8.590
 5628SOL    HW120678   1.319   8.906   8.677
 5628SOL    HW220679   1.206   8.819   8.599
 5629SOL     OW20680   1.582   8.087   7.920
 5629SOL    HW120681   1.551   8.148   7.993
 5629SOL    HW220682   1.632   8.139   7.851
 5630SOL     OW20683   0.354   8.958   8.777
 5630SOL    HW120684   0.333   8.914   8.690
 5630SOL    HW220685   0.451   8.984   8.780
 5631SOL     OW20686   1.587   8.227   9.118
 5631SOL    HW120687   1.495   8.265   9.113
 5631SOL    HW220688   1.647   8.274   9.053
 5632SOL     OW20689   1.013   7.553   9.218
 5632SOL    HW120690   1.019   7.638   9.166
 5632SOL    HW220691   1.045   7.477   9.161
 5633SOL     OW20692   0.504   7.498   9.188
 5633SOL    HW120693   0.462   7.441   9.118
 5633SOL    HW220694   0.438   7.567   9.220
 5634SOL     OW20695   0.573   8.318   8.477
 5634SOL    HW120696   0.617   8.407   8.468
 5634SOL    HW220697   0.510   8.318   8.554
 5635SOL     OW20698   1.360   8.310   8.493
 5635SOL    HW120699   1.285   8.310   8.427
 5635SOL    HW220700   1.397   8.218   8.502
 5636SOL     OW20701   1.209   7.973   7.723
 5636SOL    HW120702   1.222   7.889   7.777
 5636SOL    HW220703   1.180   8.047   7.783
 5637SOL     OW20704   0.307   7.661   8.679
 5637SOL    HW120705   0.284   7.698   8.769
 5637SOL    HW220706   0.277   7.566   8.673
 5638SOL     OW20707   0.037   8.758   8.730
 5638SOL    HW120708   0.090   8.709   8.798
 5638SOL    HW220709   0.059   8.856   8.735
 5639SOL     OW20710   0.732   8.082   8.512
 5639SOL    HW120711   0.791   8.056   8.436
 5639SOL    HW220712   0.704   8.178   8.501
 5640SOL     OW20713   1.728   8.383   9.302
 5640SOL    HW120714   1.682   8.376   9.213
 5640SOL    HW220715   1.666   8.427   9.368
 5641SOL     OW20716   0.307   7.511   8.066
 5641SOL    HW120717   0.296   7.605   8.099
 5641SOL    HW220718   0.302   7.448   8.143
 5642SOL     OW20719   1.622   7.815   7.822
 5642SOL    HW120720   1.624   7.739   7.886
 5642SOL    HW220721   1.574   7.892   7.862
 5643SOL     OW20722   1.023   8.214   8.414
 5643SOL    HW120723   1.038   8.235   8.510
 5643SOL    HW220724   0.993   8.119   8.405
 5644SOL     OW20725   0.980   9.021   9.148
 5644SOL    HW120726   0.960   9.065   9.060
 5644SOL    HW220727   1.019   8.930   9.132
 5645SOL     OW20728   1.859   8.966   9.053
 5645SOL    HW120729   1.873   8.993   8.958
 5645SOL    HW220730   1.942   8.988   9.106
 5646SOL     OW20731   1.540   7.722   7.573
 5646SOL    HW120732   1.479   7.647   7.596
 5646SOL    HW220733   1.562   7.774   7.656
 5647SOL     OW20734   1.303   8.286   7.490
 5647SOL    HW120735   1.337   8.193   7.505
 5647SOL    HW220736   1.321   8.313   7.395
 5648SOL     OW20737   0.319   8.258   8.397
 5648SOL    HW120738   0.412   8.294   8.402
 5648SOL    HW220739   0.313   8.173   8.449
 5649SOL     OW20740   0.339   7.957   8.454
 5649SOL    HW120741   0.287   7.874   8.437
 5649SOL    HW220742   0.416   7.962   8.390
 5650SOL     OW20743   1.138   7.828   9.126
 5650SOL    HW120744   1.093   7.891   9.190
 5650SOL    HW220745   1.231   7.859   9.109
 5651SOL     OW20746   0.504   9.016   8.358
 5651SOL    HW120747   0.570   9.090   8.367
 5651SOL    HW220748   0.548   8.937   8.316
 5652SOL     OW20749   1.002   8.244   8.686
 5652SOL    HW120750   1.043   8.212   8.772
 5652SOL    HW220751   0.906   8.217   8.683
 5653SOL     OW20752   0.040   7.992   8.562
 5653SOL    HW120753   0.125   7.959   8.521
 5653SOL    HW220754   0.053   8.007   8.660
 5654SOL     OW20755   0.189   7.968   9.170
 5654SOL    HW120756   0.248   7.928   9.100
 5654SOL    HW220757   0.131   8.039   9.129
 5655SOL     OW20758   1.369   8.398   9.108
 5655SOL    HW120759   1.408   8.487   9.128
 5655SOL    HW220760   1.379   8.378   9.011
 5656SOL     OW20761   0.815   8.020   7.773
 5656SOL    HW120762   0.822   7.931   7.727
 5656SOL    HW220763   0.721   8.054   7.765
 5657SOL     OW20764   0.252   9.012   9.192
 5657SOL    HW120765   0.222   9.069   9.268
 5657SOL    HW220766   0.245   8.915   9.218
 5658SOL     OW20767   0.671   7.912   8.717
 5658SOL    HW120768   0.637   7.823   8.687
 5658SOL    HW220769   0.697   7.966   8.637
 5659SOL     OW20770   0.930   9.126   8.913
 5659SOL    HW120771   0.906   9.108   8.818
 5659SOL    HW220772   0.960   9.220   8.923
 5660SOL     OW20773   0.473   7.948   7.639
 5660SOL    HW120774   0.534   8.028   7.643
 5660SOL    HW220775   0.378   7.979   7.646
 5661SOL     OW20776   0.159   8.585   8.914
 5661SOL    HW120777   0.181   8.524   8.990
 5661SOL    HW220778   0.169   8.536   8.828
 5662SOL     OW20779   1.347   8.507   8.682
 5662SOL    HW120780   1.371   8.444   8.608
 5662SOL    HW220781   1.257   8.547   8.664
 5663SOL     OW20782   1.302   8.303   7.757
 5663SOL    HW120783   1.216   8.272   7.799
 5663SOL    HW220784   1.298   8.289   7.658
 5664SOL     OW20785   1.252   9.179   8.576
 5664SOL    HW120786   1.336   9.184   8.522
 5664SOL    HW220787   1.229   9.083   8.594
 5665SOL     OW20788   0.083   8.706   8.470
 5665SOL    HW120789   0.078   8.705   8.570
 5665SOL    HW220790   0.000   8.665   8.432
 5666SOL     OW20791   0.688   9.110   9.164
 5666SOL    HW120792   0.632   9.191   9.173
 5666SOL    HW220793   0.740   9.114   9.078
 5667SOL     OW20794   1.726   7.583   7.971
 5667SOL    HW120795   1.799   7.566   7.904
 5667SOL    HW220796   1.695   7.496   8.009
 5668SOL     OW20797   1.388   9.021   7.925
 5668SOL    HW120798   1.455   9.033   7.851
 5668SOL    HW220799   1.348   9.110   7.948
 5669SOL     OW20800   0.130   9.242   9.299
 5669SOL    HW120801   0.089   9.168   9.352
 5669SOL    HW220802   0.194   9.293   9.357
 5670SOL     OW20803   1.280   8.375   8.120
 5670SOL    HW120804   1.340   8.294   8.122
 5670SOL    HW220805   1.320   8.444   8.060
 5671SOL     OW20806   0.830   8.721   8.870
 5671SOL    HW120807   0.825   8.754   8.965
 5671SOL    HW220808   0.744   8.740   8.824
 5672SOL     OW20809   0.672   9.064   7.602
 5672SOL    HW120810   0.681   9.074   7.503
 5672SOL    HW220811   0.632   8.975   7.623
 5673SOL     OW20812   1.650   9.168   8.842
 5673SOL    HW120813   1.703   9.178   8.758
 5673SOL    HW220814   1.623   9.258   8.876
 5674SOL     OW20815   1.841   7.623   8.411
 5674SOL    HW120816   1.880   7.538   8.375
 5674SOL    HW220817   1.743   7.625   8.392
 5675SOL     OW20818   0.263   7.774   8.168
 5675SOL    HW120819   0.184   7.825   8.134
 5675SOL    HW220820   0.254   7.759   8.266
 5676SOL     OW20821   1.194   9.060   7.479
 5676SOL    HW120822   1.200   8.967   7.516
 5676SOL    HW220823   1.135   9.060   7.399
 5677SOL     OW20824   0.822   8.450   8.820
 5677SOL    HW120825   0.862   8.449   8.728
 5677SOL    HW220826   0.832   8.542   8.860
 5678SOL     OW20827   0.916   8.358   7.739
 5678SOL    HW120828   0.979   8.396   7.671
 5678SOL    HW220829   0.956   8.275   7.778
 5679SOL     OW20830   1.504   9.055   7.492
 5679SOL    HW120831   1.412   9.092   7.499
 5679SOL    HW220832   1.542   9.075   7.402
 5680SOL     OW20833   0.372   8.736   8.938
 5680SOL    HW120834   0.359   8.829   8.904
 5680SOL    HW220835   0.288   8.684   8.925
 5681SOL     OW20836   1.614   8.740   8.737
 5681SOL    HW120837   1.674   8.743   8.817
 5681SOL    HW220838   1.539   8.804   8.750
 5682SOL     OW20839   1.039   8.546   8.144
 5682SOL    HW120840   0.969   8.499   8.198
 5682SOL    HW220841   1.098   8.478   8.101
 5683SOL     OW20842   0.590   8.935   7.939
 5683SOL    HW120843   0.632   8.877   7.869
 5683SOL    HW220844   0.546   9.014   7.895
 5684SOL     OW20845   1.709   7.833   8.829
 5684SOL    HW120846   1.782   7.902   8.833
 5684SOL    HW220847   1.737   7.758   8.770
 5685SOL     OW20848   0.255   8.796   7.738
 5685SOL    HW120849   0.159   8.797   7.711
 5685SOL    HW220850   0.267   8.849   7.822
 5686SOL     OW20851   0.105   8.461   9.174
 5686SOL    HW120852   0.028   8.428   9.228
 5686SOL    HW220853   0.190   8.431   9.216
 5687SOL     OW20854   0.672   7.651   8.937
 5687SOL    HW120855   0.762   7.635   8.897
 5687SOL    HW220856   0.680   7.656   9.036
 5688SOL     OW20857   0.075   7.793   7.481
 5688SOL    HW120858  -0.017   7.765   7.452
 5688SOL    HW220859   0.106   7.870   7.425
 5689SOL     OW20860   1.440   8.304   8.846
 5689SOL    HW120861   1.383   8.356   8.783
 5689SOL    HW220862   1.536   8.316   8.822
 5690SOL     OW20863   0.072   7.614   7.766
 5690SOL    HW120864   0.055   7.697   7.712
 5690SOL    HW220865   0.162   7.577   7.744
 5691SOL     OW20866   1.183   8.783   7.567
 5691SOL    HW120867   1.084   8.772   7.569
 5691SOL    HW220868   1.217   8.798   7.660
 5692SOL     OW20869   1.493   9.215   8.407
 5692SOL    HW120870   1.526   9.279   8.338
 5692SOL    HW220871   1.559   9.209   8.482
 5693SOL     OW20872   0.716   8.013   9.156
 5693SOL    HW120873   0.735   8.078   9.230
 5693SOL    HW220874   0.776   7.933   9.165
 5694SOL     OW20875   1.450   8.668   9.081
 5694SOL    HW120876   1.441   8.658   9.180
 5694SOL    HW220877   1.546   8.661   9.055
 5695SOL     OW20878   0.390   9.189   9.008
 5695SOL    HW120879   0.299   9.230   9.006
 5695SOL    HW220880   0.383   9.095   9.040
 5696SOL     OW20881   1.674   8.331   8.702
 5696SOL    HW120882   1.647   8.242   8.665
 5696SOL    HW220883   1.675   8.399   8.629
 5697SOL     OW20884   1.225   7.773   7.897
 5697SOL    HW120885   1.290   7.699   7.886
 5697SOL    HW220886   1.245   7.823   7.981
 5698SOL     OW20887   0.594   8.193   8.100
 5698SOL    HW120888   0.644   8.278   8.081
 5698SOL    HW220889   0.506   8.195   8.052
 5699SOL     OW20890   1.777   7.790   9.090
 5699SOL    HW120891   1.760   7.821   8.996
 5699SOL    HW220892   1.693   7.753   9.128
 5700SOL     OW20893   1.730   8.382   8.965
 5700SOL    HW120894   1.768   8.473   8.980
 5700SOL    HW220895   1.722   8.365   8.866
 5701SOL     OW20896   0.859   8.822   7.464
 5701SOL    HW120897   0.813   8.837   7.552
 5701SOL    HW220898   0.903   8.907   7.434
 5702SOL     OW20899   0.661   9.238   8.401
 5702SOL    HW120900   0.615   9.326   8.388
 5702SOL    HW220901   0.760   9.250   8.394
 5703SOL     OW20902   0.859   8.404   8.309
 5703SOL    HW120903   0.913   8.335   8.357
 5703SOL    HW220904   0.827   8.473   8.375
 5704SOL     OW20905   0.221   8.762   9.292
 5704SOL    HW120906   0.156   8.689   9.271
 5704SOL    HW220907   0.225   8.776   9.390
 5705SOL     OW20908   0.079   8.688   8.101
 5705SOL    HW120909   0.078   8.641   8.189
 5705SOL    HW220910   0.161   8.660   8.050
 5706SOL     OW20911   0.672   8.839   9.072
 5706SOL    HW120912   0.594   8.789   9.110
 5706SOL    HW220913   0.669   8.934   9.103
 5707SOL     OW20914   1.824   7.640   8.675
 5707SOL    HW120915   1.820   7.550   8.719
 5707SOL    HW220916   1.827   7.629   8.576
 5708SOL     OW20917   0.428   7.872   7.968
 5708SOL    HW120918   0.458   7.800   7.906
 5708SOL    HW220919   0.389   7.832   8.051
 5709SOL     OW20920   1.705   8.935   8.552
 5709SOL    HW120921   1.612   8.910   8.525
 5709SOL    HW220922   1.731   8.885   8.634
 5710SOL     OW20923   0.317   7.995   8.728
 5710SOL    HW120924   0.355   7.936   8.800
 5710SOL    HW220925   0.357   7.969   8.640
 5711SOL     OW20926   0.812   9.034   8.135
 5711SOL    HW120927   0.844   9.044   8.041
 5711SOL    HW220928   0.733   8.972   8.137
 5712SOL     OW20929   0.770   8.778   7.749
 5712SOL    HW120930   0.724   8.691   7.766
 5712SOL    HW220931   0.861   8.775   7.790
 5713SOL     OW20932   0.618   9.015   8.732
 5713SOL    HW120933   0.613   9.097   8.789
 5713SOL    HW220934   0.707   9.012   8.687
 5714SOL     OW20935   1.352   7.500   7.616
 5714SOL    HW120936   1.387   7.459   7.532
 5714SOL    HW220937   1.262   7.462   7.636
 5715SOL     OW20938   1.300   7.901   8.139
 5715SOL    HW120939   1.241   7.981   8.143
 5715SOL    HW220940   1.315   7.866   8.232
 5716SOL     OW20941   1.593   7.669   8.330
 5716SOL    HW120942   1.509   7.668   8.384
 5716SOL    HW220943   1.595   7.752   8.274
 5717SOL     OW20944   0.875   9.094   7.785
 5717SOL    HW120945   0.798   9.059   7.731
 5717SOL    HW220946   0.843   9.165   7.847
 5718SOL     OW20947   0.230   8.076   9.423
 5718SOL    HW120948   0.137   8.074   9.460
 5718SOL    HW220949   0.231   8.037   9.331
 5719SOL     OW20950   1.755   8.055   9.541
 5719SOL    HW120951   1.743   8.042   9.442
 5719SOL    HW220952   1.725   7.974   9.590
 5720SOL     OW20953   0.231   9.161   9.793
 5720SOL    HW120954   0.265   9.238   9.847
 5720SOL    HW220955   0.275   9.161   9.703
 5721SOL     OW20956   0.230   8.882   9.848
 5721SOL    HW120957   0.204   8.978   9.848
 5721SOL    HW220958   0.159   8.828   9.893
 5722SOL     OW20959   0.606   8.412   9.433
 5722SOL    HW120960   0.613   8.496   9.379
 5722SOL    HW220961   0.652   8.425   9.521
 5723SOL     OW20962   0.122   8.091   9.873
 5723SOL    HW120963   0.077   8.003   9.890
 5723SOL    HW220964   0.121   8.145   9.957
 5724SOL     OW20965   1.842   9.215   9.669
 5724SOL    HW120966   1.896   9.186   9.749
 5724SOL    HW220967   1.872   9.305   9.640
 5725SOL     OW20968   0.027   9.044   9.427
 5725SOL    HW120969   0.008   8.948   9.448
 5725SOL    HW220970  -0.006   9.102   9.502
 5726SOL     OW20971   1.689   8.370   9.922
 5726SOL    HW120972   1.784   8.341   9.930
 5726SOL    HW220973   1.681   8.435   9.847
 5727SOL     OW20974   1.641   8.556   9.742
 5727SOL    HW120975   1.727   8.558   9.690
 5727SOL    HW220976   1.655   8.603   9.830
 5728SOL     OW20977   0.613   8.813  10.036
 5728SOL    HW120978   0.564   8.726  10.045
 5728SOL    HW220979   0.590   8.856   9.949
 5729SOL     OW20980   0.809   7.452   9.812
 5729SOL    HW120981   0.849   7.543   9.803
 5729SOL    HW220982   0.709   7.460   9.818
 5730SOL     OW20983   1.525   8.447   9.500
 5730SOL    HW120984   1.462   8.371   9.513
 5730SOL    HW220985   1.573   8.465   9.586
 5731SOL     OW20986   0.598   8.177   9.580
 5731SOL    HW120987   0.622   8.246   9.512
 5731SOL    HW220988   0.520   8.210   9.634
 5732SOL     OW20989   1.576   9.110   9.617
 5732SOL    HW120990   1.665   9.156   9.620
 5732SOL    HW220991   1.555   9.086   9.522
 5733SOL     OW20992   1.041   8.149   9.739
 5733SOL    HW120993   1.067   8.145   9.835
 5733SOL    HW220994   0.956   8.098   9.725
 5734SOL     OW20995   0.076   8.259  10.099
 5734SOL    HW120996   0.175   8.247  10.108
 5734SOL    HW220997   0.052   8.354  10.120
 5735SOL     OW20998   0.865   7.796   9.505
 5735SOL    HW120999   0.924   7.859   9.456
 5735SOL    HW221000   0.884   7.702   9.476
 5736SOL     OW21001   1.362   8.592   9.855
 5736SOL    HW121002   1.445   8.563   9.807
 5736SOL    HW221003   1.313   8.659   9.799
 5737SOL     OW21004   1.008   8.904   9.787
 5737SOL    HW121005   0.962   8.976   9.735
 5737SOL    HW221006   1.004   8.924   9.885
 5738SOL     OW21007   0.351   9.249  10.163
 5738SOL    HW121008   0.401   9.163  10.169
 5738SOL    HW221009   0.416   9.326  10.160
 5739SOL     OW21010   0.321   8.391   9.552
 5739SOL    HW121011   0.403   8.430   9.510
 5739SOL    HW221012   0.294   8.309   9.503
 5740SOL     OW21013   1.111   9.224   9.547
 5740SOL    HW121014   1.051   9.162   9.597
 5740SOL    HW221015   1.142   9.180   9.462
 5741SOL     OW21016   1.632   8.825   9.391
 5741SOL    HW121017   1.600   8.919   9.381
 5741SOL    HW221018   1.556   8.762   9.379
 5742SOL     OW21019   0.464   9.191   9.633
 5742SOL    HW121020   0.497   9.230   9.719
 5742SOL    HW221021   0.540   9.184   9.568
 5743SOL     OW21022   1.400   7.555   9.736
 5743SOL    HW121023   1.376   7.518   9.646
 5743SOL    HW221024   1.499   7.571   9.740
 5744SOL     OW21025   0.382   8.148   9.790
 5744SOL    HW121026   0.427   8.058   9.787
 5744SOL    HW221027   0.288   8.137   9.823
 5745SOL     OW21028   0.614   7.570   9.427
 5745SOL    HW121029   0.712   7.548   9.434
 5745SOL    HW221030   0.583   7.553   9.334
 5746SOL     OW21031   0.539   7.512   9.822
 5746SOL    HW121032   0.458   7.513   9.880
 5746SOL    HW221033   0.542   7.595   9.767
 5747SOL     OW21034   1.434   8.636   9.351
 5747SOL    HW121035   1.466   8.560   9.408
 5747SOL    HW221036   1.342   8.663   9.381
 5748SOL     OW21037   0.297   7.483   9.481
 5748SOL    HW121038   0.346   7.567   9.460
 5748SOL    HW221039   0.359   7.418   9.526
 5749SOL     OW21040   0.935   7.684   9.790
 5749SOL    HW121041   0.887   7.725   9.712
 5749SOL    HW221042   1.034   7.682   9.771
 5750SOL     OW21043   0.459   8.600  10.051
 5750SOL    HW121044   0.388   8.573  10.116
 5750SOL    HW221045   0.433   8.572   9.958
 5751SOL     OW21046   1.271   9.245   9.901
 5751SOL    HW121047   1.315   9.309   9.837
 5751SOL    HW221048   1.221   9.297   9.971
 5752SOL     OW21049   1.032   7.997   9.326
 5752SOL    HW121050   0.991   8.079   9.287
 5752SOL    HW221051   1.096   8.023   9.399
 5753SOL     OW21052   0.866   7.902   9.952
 5753SOL    HW121053   0.834   7.974   9.890
 5753SOL    HW221054   0.890   7.821   9.899
 5754SOL     OW21055   1.857   8.281   9.687
 5754SOL    HW121056   1.899   8.217   9.751
 5754SOL    HW221057   1.819   8.230   9.609
 5755SOL     OW21058   0.488   8.833   9.484
 5755SOL    HW121059   0.401   8.818   9.531
 5755SOL    HW221060   0.471   8.859   9.389
 5756SOL     OW21061   1.390   8.023   9.388
 5756SOL    HW121062   1.336   8.002   9.469
 5756SOL    HW221063   1.481   7.982   9.397
 5757SOL     OW21064   0.527   7.704   9.638
 5757SOL    HW121065   0.554   7.645   9.563
 5757SOL    HW221066   0.527   7.799   9.607
 5758SOL     OW21067   0.705   8.498   9.678
 5758SOL    HW121068   0.691   8.505   9.777
 5758SOL    HW221069   0.789   8.447   9.660
 5759SOL     OW21070   0.367   8.548   9.811
 5759SOL    HW121071   0.360   8.631   9.755
 5759SOL    HW221072   0.371   8.468   9.751
 5760SOL     OW21073   1.252   8.796   9.698
 5760SOL    HW121074   1.302   8.873   9.738
 5760SOL    HW221075   1.157   8.798   9.730
 5761SOL     OW21076   1.582   8.087   9.782
 5761SOL    HW121077   1.551   8.148   9.855
 5761SOL    HW221078   1.632   8.139   9.713
 5762SOL     OW21079   1.209   7.973   9.585
 5762SOL    HW121080   1.222   7.889   9.639
 5762SOL    HW221081   1.180   8.047   9.645
 5763SOL     OW21082   0.307   7.511   9.928
 5763SOL    HW121083   0.296   7.605   9.961
 5763SOL    HW221084   0.302   7.448  10.005
 5764SOL     OW21085   1.622   7.815   9.684
 5764SOL    HW121086   1.624   7.739   9.748
 5764SOL    HW221087   1.574   7.892   9.724
 5765SOL     OW21088   1.540   7.722   9.435
 5765SOL    HW121089   1.479   7.647   9.458
 5765SOL    HW221090   1.562   7.774   9.518
 5766SOL     OW21091   1.303   8.286   9.352
 5766SOL    HW121092   1.337   8.193   9.367
 5766SOL    HW221093   1.321   8.313   9.257
 5767SOL     OW21094   0.008   8.774   9.510
 5767SOL    HW121095  -0.085   8.795   9.479
 5767SOL    HW221096   0.018   8.675   9.523
 5768SOL     OW21097   0.815   8.020   9.635
 5768SOL    HW121098   0.822   7.931   9.589
 5768SOL    HW221099   0.721   8.054   9.627
 5769SOL     OW21100   0.473   7.948   9.501
 5769SOL    HW121101   0.534   8.028   9.505
 5769SOL    HW221102   0.378   7.979   9.508
 5770SOL     OW21103   1.302   8.303   9.619
 5770SOL    HW121104   1.216   8.272   9.661
 5770SOL    HW221105   1.298   8.289   9.520
 5771SOL     OW21106   1.726   7.583   9.833
 5771SOL    HW121107   1.799   7.566   9.766
 5771SOL    HW221108   1.695   7.496   9.871
 5772SOL     OW21109   1.388   9.021   9.787
 5772SOL    HW121110   1.455   9.033   9.713
 5772SOL    HW221111   1.348   9.110   9.810
 5773SOL     OW21112   0.672   9.064   9.464
 5773SOL    HW121113   0.681   9.074   9.365
 5773SOL    HW221114   0.632   8.975   9.485
 5774SOL     OW21115   1.194   9.060   9.341
 5774SOL    HW121116   1.200   8.967   9.378
 5774SOL    HW221117   1.135   9.060   9.261
 5775SOL     OW21118   0.916   8.358   9.601
 5775SOL    HW121119   0.979   8.396   9.533
 5775SOL    HW221120   0.956   8.275   9.640
 5776SOL     OW21121   1.504   9.055   9.354
 5776SOL    HW121122   1.412   9.092   9.361
 5776SOL    HW221123   1.542   9.075   9.264
 5777SOL     OW21124   0.590   8.935   9.801
 5777SOL    HW121125   0.632   8.877   9.731
 5777SOL    HW221126   0.546   9.014   9.757
 5778SOL     OW21127   0.255   8.796   9.600
 5778SOL    HW121128   0.159   8.797   9.573
 5778SOL    HW221129   0.267   8.849   9.684
 5779SOL     OW21130   0.075   7.793   9.343
 5779SOL    HW121131  -0.017   7.765   9.314
 5779SOL    HW221132   0.106   7.870   9.287
 5780SOL     OW21133   0.072   7.614   9.628
 5780SOL    HW121134   0.055   7.697   9.574
 5780SOL    HW221135   0.162   7.577   9.606
 5781SOL     OW21136   1.183   8.783   9.429
 5781SOL    HW121137   1.084   8.772   9.431
 5781SOL    HW221138   1.217   8.798   9.522
 5782SOL     OW21139   1.225   7.773   9.759
 5782SOL    HW121140   1.290   7.699   9.748
 5782SOL    HW221141   1.245   7.823   9.843
 5783SOL     OW21142   0.594   8.193   9.962
 5783SOL    HW121143   0.644   8.278   9.943
 5783SOL    HW221144   0.506   8.195   9.914
 5784SOL     OW21145   0.859   8.822   9.326
 5784SOL    HW121146   0.813   8.837   9.414
 5784SOL    HW221147   0.903   8.907   9.296
 5785SOL     OW21148   1.083   8.432   9.397
 5785SOL    HW121149   1.060   8.485   9.315
 5785SOL    HW221150   1.164   8.376   9.378
 5786SOL     OW21151   0.079   8.688   9.963
 5786SOL    HW121152   0.078   8.641  10.051
 5786SOL    HW221153   0.161   8.660   9.912
 5787SOL     OW21154   0.428   7.872   9.830
 5787SOL    HW121155   0.458   7.800   9.768
 5787SOL    HW221156   0.389   7.832   9.913
 5788SOL     OW21157   0.770   8.778   9.611
 5788SOL    HW121158   0.724   8.691   9.628
 5788SOL    HW221159   0.861   8.775   9.652
 5789SOL     OW21160   1.352   7.500   9.478
 5789SOL    HW121161   1.387   7.459   9.394
 5789SOL    HW221162   1.262   7.462   9.498
 5790SOL     OW21163   0.039   8.525   9.610
 5790SOL    HW121164   0.138   8.514   9.601
 5790SOL    HW221165  -0.001   8.439   9.642
 5791SOL     OW21166   0.875   9.094   9.647
 5791SOL    HW121167   0.798   9.059   9.593
 5791SOL    HW221168   0.843   9.165   9.709
 5792SOL     OW21169   0.225   9.585   0.996
 5792SOL    HW121170   0.260   9.568   1.088
 5792SOL    HW221171   0.137   9.540   0.984
 5793SOL     OW21172   0.019   9.678   0.647
 5793SOL    HW121173  -0.063   9.721   0.686
 5793SOL    HW221174  -0.009   9.605   0.584
 5794SOL     OW21175   1.755   9.917   0.231
 5794SOL    HW121176   1.743   9.904   0.132
 5794SOL    HW221177   1.725   9.836   0.280
 5795SOL     OW21178   0.438   9.702   1.499
 5795SOL    HW121179   0.520   9.646   1.508
 5795SOL    HW221180   0.357   9.644   1.503
 5796SOL     OW21181   1.603   9.757   0.737
 5796SOL    HW121182   1.529   9.803   0.687
 5796SOL    HW221183   1.654   9.825   0.790
 5797SOL     OW21184   1.594   9.424   1.480
 5797SOL    HW121185   1.576   9.491   1.408
 5797SOL    HW221186   1.591   9.470   1.569
 5798SOL     OW21187   0.122   9.953   0.563
 5798SOL    HW121188   0.077   9.865   0.580
 5798SOL    HW221189   0.121  10.007   0.647
 5799SOL     OW21190   0.809   9.314   0.502
 5799SOL    HW121191   0.849   9.405   0.493
 5799SOL    HW221192   0.709   9.322   0.508
 5800SOL     OW21193   0.317   9.561   1.801
 5800SOL    HW121194   0.388   9.632   1.807
 5800SOL    HW221195   0.229   9.600   1.829
 5801SOL     OW21196   1.281   9.655   0.944
 5801SOL    HW121197   1.195   9.605   0.931
 5801SOL    HW221198   1.343   9.601   1.000
 5802SOL     OW21199   0.807   9.915   1.465
 5802SOL    HW121200   0.760   9.912   1.554
 5802SOL    HW221201   0.756   9.860   1.399
 5803SOL     OW21202   1.394   9.779   1.674
 5803SOL    HW121203   1.374   9.822   1.762
 5803SOL    HW221204   1.472   9.717   1.683
 5804SOL     OW21205   0.991   9.720   1.242
 5804SOL    HW121206   0.914   9.754   1.296
 5804SOL    HW221207   0.957   9.669   1.163
 5805SOL     OW21208   1.041  10.011   0.429
 5805SOL    HW121209   1.067  10.007   0.525
 5805SOL    HW221210   0.956   9.960   0.415
 5806SOL     OW21211   0.076  10.121   0.789
 5806SOL    HW121212   0.175  10.109   0.798
 5806SOL    HW221213   0.052  10.216   0.810
 5807SOL     OW21214   0.865   9.658   0.195
 5807SOL    HW121215   0.924   9.721   0.146
 5807SOL    HW221216   0.884   9.564   0.166
 5808SOL     OW21217   1.719   9.895   1.831
 5808SOL    HW121218   1.693   9.984   1.795
 5808SOL    HW221219   1.717   9.827   1.758
 5809SOL     OW21220   0.550   9.506   0.885
 5809SOL    HW121221   0.545   9.501   0.985
 5809SOL    HW221222   0.552   9.602   0.856
 5810SOL     OW21223   1.458  10.045   0.728
 5810SOL    HW121224   1.453   9.980   0.803
 5810SOL    HW221225   1.538  10.104   0.741
 5811SOL     OW21226   0.202   9.595   1.498
 5811SOL    HW121227   0.122   9.655   1.485
 5811SOL    HW221228   0.192   9.546   1.584
 5812SOL     OW21229   1.400   9.417   0.426
 5812SOL    HW121230   1.376   9.380   0.336
 5812SOL    HW221231   1.499   9.433   0.430
 5813SOL     OW21232   1.547   9.532   1.729
 5813SOL    HW121233   1.542   9.569   1.821
 5813SOL    HW221234   1.475   9.463   1.717
 5814SOL     OW21235   0.614   9.432   0.117
 5814SOL    HW121236   0.712   9.410   0.124
 5814SOL    HW221237   0.583   9.415   0.024
 5815SOL     OW21238   0.781   9.574   1.749
 5815SOL    HW121239   0.848   9.513   1.792
 5815SOL    HW221240   0.708   9.593   1.814
 5816SOL     OW21241   1.351   9.900   1.433
 5816SOL    HW121242   1.379   9.857   1.518
 5816SOL    HW221243   1.376   9.996   1.434
 5817SOL     OW21244   0.922   9.813   0.899
 5817SOL    HW121245   0.897   9.804   0.803
 5817SOL    HW221246   0.970   9.731   0.930
 5818SOL     OW21247   0.539   9.374   0.512
 5818SOL    HW121248   0.458   9.375   0.570
 5818SOL    HW221249   0.542   9.457   0.457
 5819SOL     OW21250   0.935   9.546   0.480
 5819SOL    HW121251   0.887   9.587   0.402
 5819SOL    HW221252   1.034   9.544   0.461
 5820SOL     OW21253   1.076   9.993   1.464
 5820SOL    HW121254   0.996   9.932   1.467
 5820SOL    HW221255   1.157   9.940   1.440
 5821SOL     OW21256   1.032   9.859   0.016
 5821SOL    HW121257   0.991   9.941  -0.023
 5821SOL    HW221258   1.096   9.885   0.089
 5822SOL     OW21259   0.561   9.532   1.147
 5822SOL    HW121260   0.599   9.448   1.184
 5822SOL    HW221261   0.473   9.551   1.191
 5823SOL     OW21262   0.866   9.764   0.642
 5823SOL    HW121263   0.834   9.836   0.580
 5823SOL    HW221264   0.890   9.683   0.589
 5824SOL     OW21265   1.017   9.349   0.753
 5824SOL    HW121266   0.945   9.354   0.684
 5824SOL    HW221267   0.993   9.280   0.822
 5825SOL     OW21268   1.466   9.900   0.992
 5825SOL    HW121269   1.436   9.805   0.999
 5825SOL    HW221270   1.539   9.916   1.058
 5826SOL     OW21271   0.527   9.566   0.328
 5826SOL    HW121272   0.554   9.507   0.253
 5826SOL    HW221273   0.527   9.661   0.297
 5827SOL     OW21274   1.274   9.696   1.262
 5827SOL    HW121275   1.295   9.770   1.326
 5827SOL    HW221276   1.185   9.713   1.219
 5828SOL     OW21277   0.566   9.847   0.865
 5828SOL    HW121278   0.578   9.913   0.791
 5828SOL    HW221279   0.612   9.881   0.948
 5829SOL     OW21280   1.582   9.949   0.472
 5829SOL    HW121281   1.551  10.010   0.545
 5829SOL    HW221282   1.632  10.001   0.403
 5830SOL     OW21283   0.504   9.360   1.740
 5830SOL    HW121284   0.462   9.303   1.670
 5830SOL    HW221285   0.438   9.429   1.772
 5831SOL     OW21286   1.209   9.835   0.275
 5831SOL    HW121287   1.222   9.751   0.329
 5831SOL    HW221288   1.180   9.909   0.335
 5832SOL     OW21289   0.307   9.523   1.231
 5832SOL    HW121290   0.284   9.560   1.321
 5832SOL    HW221291   0.277   9.428   1.225
 5833SOL     OW21292   0.732   9.944   1.064
 5833SOL    HW121293   0.791   9.918   0.988
 5833SOL    HW221294   0.704  10.040   1.053
 5834SOL     OW21295   0.307   9.373   0.618
 5834SOL    HW121296   0.296   9.467   0.651
 5834SOL    HW221297   0.302   9.310   0.695
 5835SOL     OW21298   1.622   9.677   0.374
 5835SOL    HW121299   1.624   9.601   0.438
 5835SOL    HW221300   1.574   9.754   0.414
 5836SOL     OW21301   1.540   9.584   0.125
 5836SOL    HW121302   1.479   9.509   0.148
 5836SOL    HW221303   1.562   9.636   0.208
 5837SOL     OW21304   0.319  10.120   0.949
 5837SOL    HW121305   0.412  10.156   0.954
 5837SOL    HW221306   0.313  10.035   1.001
 5838SOL     OW21307   0.339   9.819   1.006
 5838SOL    HW121308   0.287   9.736   0.989
 5838SOL    HW221309   0.416   9.824   0.942
 5839SOL     OW21310   1.138   9.690   1.678
 5839SOL    HW121311   1.093   9.753   1.742
 5839SOL    HW221312   1.231   9.721   1.661
 5840SOL     OW21313   1.160   9.517   1.477
 5840SOL    HW121314   1.160   9.581   1.554
 5840SOL    HW221315   1.188   9.565   1.394
 5841SOL     OW21316   0.189   9.830   1.722
 5841SOL    HW121317   0.248   9.790   1.652
 5841SOL    HW221318   0.131   9.901   1.681
 5842SOL     OW21319   0.815   9.882   0.325
 5842SOL    HW121320   0.822   9.793   0.279
 5842SOL    HW221321   0.721   9.916   0.317
 5843SOL     OW21322   1.657   9.914   1.206
 5843SOL    HW121323   1.619   9.845   1.268
 5843SOL    HW221324   1.739   9.878   1.162
 5844SOL     OW21325   0.671   9.774   1.269
 5844SOL    HW121326   0.637   9.685   1.239
 5844SOL    HW221327   0.697   9.828   1.189
 5845SOL     OW21328   0.903   9.396   0.133
 5845SOL    HW121329   0.954   9.397   0.047
 5845SOL    HW221330   0.959   9.354   0.204
 5846SOL     OW21331   1.726   9.445   0.523
 5846SOL    HW121332   1.799   9.428   0.456
 5846SOL    HW221333   1.695   9.358   0.561
 5847SOL     OW21334   1.841   9.485   0.963
 5847SOL    HW121335   1.880   9.400   0.927
 5847SOL    HW221336   1.743   9.487   0.944
 5848SOL     OW21337   0.263   9.636   0.720
 5848SOL    HW121338   0.184   9.687   0.686
 5848SOL    HW221339   0.254   9.621   0.818
 5849SOL     OW21340   1.014   9.546   0.971
 5849SOL    HW121341   1.006   9.510   0.878
 5849SOL    HW221342   1.012   9.470   1.036
 5850SOL     OW21343   1.709   9.695   1.381
 5850SOL    HW121344   1.782   9.764   1.385
 5850SOL    HW221345   1.737   9.620   1.322
 5851SOL     OW21346   0.672   9.513   1.489
 5851SOL    HW121347   0.762   9.497   1.449
 5851SOL    HW221348   0.680   9.518   1.588
 5852SOL     OW21349   0.075   9.655   0.033
 5852SOL    HW121350  -0.017   9.627   0.004
 5852SOL    HW221351   0.106   9.732  -0.023
 5853SOL     OW21352   0.072   9.476   0.318
 5853SOL    HW121353   0.055   9.559   0.264
 5853SOL    HW221354   0.162   9.439   0.296
 5854SOL     OW21355   0.716   9.875   1.708
 5854SOL    HW121356   0.735   9.940   1.782
 5854SOL    HW221357   0.776   9.795   1.717
 5855SOL     OW21358   1.225   9.635   0.449
 5855SOL    HW121359   1.290   9.561   0.438
 5855SOL    HW221360   1.245   9.685   0.533
 5856SOL     OW21361   1.777   9.652   1.642
 5856SOL    HW121362   1.760   9.683   1.548
 5856SOL    HW221363   1.693   9.615   1.680
 5857SOL     OW21364   1.083  10.294   0.087
 5857SOL    HW121365   1.060  10.347   0.005
 5857SOL    HW221366   1.164  10.238   0.068
 5858SOL     OW21367   1.824   9.502   1.227
 5858SOL    HW121368   1.820   9.412   1.271
 5858SOL    HW221369   1.827   9.491   1.128
 5859SOL     OW21370   0.428   9.734   0.520
 5859SOL    HW121371   0.458   9.662   0.458
 5859SOL    HW221372   0.389   9.694   0.603
 5860SOL     OW21373   0.317   9.857   1.280
 5860SOL    HW121374   0.355   9.798   1.352
 5860SOL    HW221375   0.357   9.831   1.192
 5861SOL     OW21376   1.424   9.524   1.112
 5861SOL    HW121377   1.476   9.459   1.167
 5861SOL    HW221378   1.375   9.587   1.173
 5862SOL     OW21379   1.352   9.362   0.168
 5862SOL    HW121380   1.387   9.321   0.084
 5862SOL    HW221381   1.262   9.324   0.188
 5863SOL     OW21382   1.300   9.763   0.691
 5863SOL    HW121383   1.241   9.843   0.695
 5863SOL    HW221384   1.315   9.728   0.784
 5864SOL     OW21385   1.593   9.531   0.882
 5864SOL    HW121386   1.509   9.530   0.936
 5864SOL    HW221387   1.595   9.614   0.826
 5865SOL     OW21388   0.225   9.585   2.858
 5865SOL    HW121389   0.260   9.568   2.950
 5865SOL    HW221390   0.137   9.540   2.846
 5866SOL     OW21391   0.019   9.678   2.509
 5866SOL    HW121392  -0.063   9.721   2.548
 5866SOL    HW221393  -0.009   9.605   2.446
 5867SOL     OW21394   1.755   9.917   2.093
 5867SOL    HW121395   1.743   9.904   1.994
 5867SOL    HW221396   1.725   9.836   2.142
 5868SOL     OW21397   0.438   9.702   3.361
 5868SOL    HW121398   0.520   9.646   3.370
 5868SOL    HW221399   0.357   9.644   3.365
 5869SOL     OW21400   1.603   9.757   2.599
 5869SOL    HW121401   1.529   9.803   2.549
 5869SOL    HW221402   1.654   9.825   2.652
 5870SOL     OW21403   1.594   9.424   3.342
 5870SOL    HW121404   1.576   9.491   3.270
 5870SOL    HW221405   1.591   9.470   3.431
 5871SOL     OW21406   0.122   9.953   2.425
 5871SOL    HW121407   0.077   9.865   2.442
 5871SOL    HW221408   0.121  10.007   2.509
 5872SOL     OW21409   0.809   9.314   2.364
 5872SOL    HW121410   0.849   9.405   2.355
 5872SOL    HW221411   0.709   9.322   2.370
 5873SOL     OW21412   0.317   9.561   3.663
 5873SOL    HW121413   0.388   9.632   3.669
 5873SOL    HW221414   0.229   9.600   3.691
 5874SOL     OW21415   1.281   9.655   2.806
 5874SOL    HW121416   1.195   9.605   2.793
 5874SOL    HW221417   1.343   9.601   2.862
 5875SOL     OW21418   0.807   9.915   3.327
 5875SOL    HW121419   0.760   9.912   3.416
 5875SOL    HW221420   0.756   9.860   3.261
 5876SOL     OW21421   0.991   9.720   3.104
 5876SOL    HW121422   0.914   9.754   3.158
 5876SOL    HW221423   0.957   9.669   3.025
 5877SOL     OW21424   1.041  10.011   2.291
 5877SOL    HW121425   1.067  10.007   2.387
 5877SOL    HW221426   0.956   9.960   2.277
 5878SOL     OW21427   0.076  10.121   2.651
 5878SOL    HW121428   0.175  10.109   2.660
 5878SOL    HW221429   0.052  10.216   2.672
 5879SOL     OW21430   1.719   9.895   3.693
 5879SOL    HW121431   1.693   9.984   3.657
 5879SOL    HW221432   1.717   9.827   3.620
 5880SOL     OW21433   0.550   9.506   2.747
 5880SOL    HW121434   0.545   9.501   2.847
 5880SOL    HW221435   0.552   9.602   2.718
 5881SOL     OW21436   1.458  10.045   2.590
 5881SOL    HW121437   1.453   9.980   2.665
 5881SOL    HW221438   1.538  10.104   2.603
 5882SOL     OW21439   1.400   9.417   2.288
 5882SOL    HW121440   1.376   9.380   2.198
 5882SOL    HW221441   1.499   9.433   2.292
 5883SOL     OW21442   1.547   9.532   3.591
 5883SOL    HW121443   1.542   9.569   3.683
 5883SOL    HW221444   1.475   9.463   3.579
 5884SOL     OW21445   0.781   9.574   3.611
 5884SOL    HW121446   0.848   9.513   3.654
 5884SOL    HW221447   0.708   9.593   3.676
 5885SOL     OW21448   0.922   9.813   2.761
 5885SOL    HW121449   0.897   9.804   2.665
 5885SOL    HW221450   0.970   9.731   2.792
 5886SOL     OW21451   0.539   9.374   2.374
 5886SOL    HW121452   0.458   9.375   2.432
 5886SOL    HW221453   0.542   9.457   2.319
 5887SOL     OW21454   0.297   9.345   2.033
 5887SOL    HW121455   0.346   9.429   2.012
 5887SOL    HW221456   0.359   9.280   2.078
 5888SOL     OW21457   1.076   9.993   3.326
 5888SOL    HW121458   0.996   9.932   3.329
 5888SOL    HW221459   1.157   9.940   3.302
 5889SOL     OW21460   1.032   9.859   1.878
 5889SOL    HW121461   0.991   9.941   1.839
 5889SOL    HW221462   1.096   9.885   1.951
 5890SOL     OW21463   0.561   9.532   3.009
 5890SOL    HW121464   0.599   9.448   3.046
 5890SOL    HW221465   0.473   9.551   3.053
 5891SOL     OW21466   0.866   9.764   2.504
 5891SOL    HW121467   0.834   9.836   2.442
 5891SOL    HW221468   0.890   9.683   2.451
 5892SOL     OW21469   1.017   9.349   2.615
 5892SOL    HW121470   0.945   9.354   2.546
 5892SOL    HW221471   0.993   9.280   2.684
 5893SOL     OW21472   1.466   9.900   2.854
 5893SOL    HW121473   1.436   9.805   2.861
 5893SOL    HW221474   1.539   9.916   2.920
 5894SOL     OW21475   0.527   9.566   2.190
 5894SOL    HW121476   0.554   9.507   2.115
 5894SOL    HW221477   0.527   9.661   2.159
 5895SOL     OW21478   0.566   9.847   2.727
 5895SOL    HW121479   0.578   9.913   2.653
 5895SOL    HW221480   0.612   9.881   2.810
 5896SOL     OW21481   1.582   9.949   2.334
 5896SOL    HW121482   1.551  10.010   2.407
 5896SOL    HW221483   1.632  10.001   2.265
 5897SOL     OW21484   1.013   9.415   3.632
 5897SOL    HW121485   1.019   9.500   3.580
 5897SOL    HW221486   1.045   9.339   3.575
 5898SOL     OW21487   0.504   9.360   3.602
 5898SOL    HW121488   0.462   9.303   3.532
 5898SOL    HW221489   0.438   9.429   3.634
 5899SOL     OW21490   1.209   9.835   2.137
 5899SOL    HW121491   1.222   9.751   2.191
 5899SOL    HW221492   1.180   9.909   2.197
 5900SOL     OW21493   0.732   9.944   2.926
 5900SOL    HW121494   0.791   9.918   2.850
 5900SOL    HW221495   0.704  10.040   2.915
 5901SOL     OW21496   0.307   9.373   2.480
 5901SOL    HW121497   0.296   9.467   2.513
 5901SOL    HW221498   0.302   9.310   2.557
 5902SOL     OW21499   1.622   9.677   2.236
 5902SOL    HW121500   1.624   9.601   2.300
 5902SOL    HW221501   1.574   9.754   2.276
 5903SOL     OW21502   1.540   9.584   1.987
 5903SOL    HW121503   1.479   9.509   2.010
 5903SOL    HW221504   1.562   9.636   2.070
 5904SOL     OW21505   0.319  10.120   2.811
 5904SOL    HW121506   0.412  10.156   2.816
 5904SOL    HW221507   0.313  10.035   2.863
 5905SOL     OW21508   0.339   9.819   2.868
 5905SOL    HW121509   0.287   9.736   2.851
 5905SOL    HW221510   0.416   9.824   2.804
 5906SOL     OW21511   0.189   9.830   3.584
 5906SOL    HW121512   0.248   9.790   3.514
 5906SOL    HW221513   0.131   9.901   3.543
 5907SOL     OW21514   0.815   9.882   2.187
 5907SOL    HW121515   0.822   9.793   2.141
 5907SOL    HW221516   0.721   9.916   2.179
 5908SOL     OW21517   1.657   9.914   3.068
 5908SOL    HW121518   1.619   9.845   3.130
 5908SOL    HW221519   1.739   9.878   3.024
 5909SOL     OW21520   0.671   9.774   3.131
 5909SOL    HW121521   0.637   9.685   3.101
 5909SOL    HW221522   0.697   9.828   3.051
 5910SOL     OW21523   1.726   9.445   2.385
 5910SOL    HW121524   1.799   9.428   2.318
 5910SOL    HW221525   1.695   9.358   2.423
 5911SOL     OW21526   1.841   9.485   2.825
 5911SOL    HW121527   1.880   9.400   2.789
 5911SOL    HW221528   1.743   9.487   2.806
 5912SOL     OW21529   0.263   9.636   2.582
 5912SOL    HW121530   0.184   9.687   2.548
 5912SOL    HW221531   0.254   9.621   2.680
 5913SOL     OW21532   1.014   9.546   2.833
 5913SOL    HW121533   1.006   9.510   2.740
 5913SOL    HW221534   1.012   9.470   2.898
 5914SOL     OW21535   1.709   9.695   3.243
 5914SOL    HW121536   1.782   9.764   3.247
 5914SOL    HW221537   1.737   9.620   3.184
 5915SOL     OW21538   0.672   9.513   3.351
 5915SOL    HW121539   0.762   9.497   3.311
 5915SOL    HW221540   0.680   9.518   3.450
 5916SOL     OW21541   0.075   9.655   1.895
 5916SOL    HW121542  -0.017   9.627   1.866
 5916SOL    HW221543   0.106   9.732   1.839
 5917SOL     OW21544   0.072   9.476   2.180
 5917SOL    HW121545   0.055   9.559   2.126
 5917SOL    HW221546   0.162   9.439   2.158
 5918SOL     OW21547   0.716   9.875   3.570
 5918SOL    HW121548   0.735   9.940   3.644
 5918SOL    HW221549   0.776   9.795   3.579
 5919SOL     OW21550   1.225   9.635   2.311
 5919SOL    HW121551   1.290   9.561   2.300
 5919SOL    HW221552   1.245   9.685   2.395
 5920SOL     OW21553   1.777   9.652   3.504
 5920SOL    HW121554   1.760   9.683   3.410
 5920SOL    HW221555   1.693   9.615   3.542
 5921SOL     OW21556   1.083  10.294   1.949
 5921SOL    HW121557   1.060  10.347   1.867
 5921SOL    HW221558   1.164  10.238   1.930
 5922SOL     OW21559   1.824   9.502   3.089
 5922SOL    HW121560   1.820   9.412   3.133
 5922SOL    HW221561   1.827   9.491   2.990
 5923SOL     OW21562   0.428   9.734   2.382
 5923SOL    HW121563   0.458   9.662   2.320
 5923SOL    HW221564   0.389   9.694   2.465
 5924SOL     OW21565   0.317   9.857   3.142
 5924SOL    HW121566   0.355   9.798   3.214
 5924SOL    HW221567   0.357   9.831   3.054
 5925SOL     OW21568   1.001   9.344   3.016
 5925SOL    HW121569   0.938   9.272   2.985
 5925SOL    HW221570   1.094   9.308   3.016
 5926SOL     OW21571   1.352   9.362   2.030
 5926SOL    HW121572   1.387   9.321   1.946
 5926SOL    HW221573   1.262   9.324   2.050
 5927SOL     OW21574   1.300   9.763   2.553
 5927SOL    HW121575   1.241   9.843   2.557
 5927SOL    HW221576   1.315   9.728   2.646
 5928SOL     OW21577   1.593   9.531   2.744
 5928SOL    HW121578   1.509   9.530   2.798
 5928SOL    HW221579   1.595   9.614   2.688
 5929SOL     OW21580   0.225   9.585   4.720
 5929SOL    HW121581   0.260   9.568   4.812
 5929SOL    HW221582   0.137   9.540   4.708
 5930SOL     OW21583   0.019   9.678   4.371
 5930SOL    HW121584  -0.063   9.721   4.410
 5930SOL    HW221585  -0.009   9.605   4.308
 5931SOL     OW21586   1.755   9.917   3.955
 5931SOL    HW121587   1.743   9.904   3.856
 5931SOL    HW221588   1.725   9.836   4.004
 5932SOL     OW21589   1.603   9.757   4.461
 5932SOL    HW121590   1.529   9.803   4.411
 5932SOL    HW221591   1.654   9.825   4.514
 5933SOL     OW21592   1.594   9.424   5.204
 5933SOL    HW121593   1.576   9.491   5.132
 5933SOL    HW221594   1.591   9.470   5.293
 5934SOL     OW21595   0.809   9.314   4.226
 5934SOL    HW121596   0.849   9.405   4.217
 5934SOL    HW221597   0.709   9.322   4.232
 5935SOL     OW21598   0.317   9.561   5.525
 5935SOL    HW121599   0.388   9.632   5.531
 5935SOL    HW221600   0.229   9.600   5.553
 5936SOL     OW21601   1.394   9.779   5.398
 5936SOL    HW121602   1.374   9.822   5.486
 5936SOL    HW221603   1.472   9.717   5.407
 5937SOL     OW21604   1.041  10.011   4.153
 5937SOL    HW121605   1.067  10.007   4.249
 5937SOL    HW221606   0.956   9.960   4.139
 5938SOL     OW21607   0.076  10.121   4.513
 5938SOL    HW121608   0.175  10.109   4.522
 5938SOL    HW221609   0.052  10.216   4.534
 5939SOL     OW21610   0.865   9.658   3.919
 5939SOL    HW121611   0.924   9.721   3.870
 5939SOL    HW221612   0.884   9.564   3.890
 5940SOL     OW21613   1.719   9.895   5.555
 5940SOL    HW121614   1.693   9.984   5.519
 5940SOL    HW221615   1.717   9.827   5.482
 5941SOL     OW21616   1.458  10.045   4.452
 5941SOL    HW121617   1.453   9.980   4.527
 5941SOL    HW221618   1.538  10.104   4.465
 5942SOL     OW21619   0.202   9.595   5.222
 5942SOL    HW121620   0.122   9.655   5.209
 5942SOL    HW221621   0.192   9.546   5.308
 5943SOL     OW21622   1.400   9.417   4.150
 5943SOL    HW121623   1.376   9.380   4.060
 5943SOL    HW221624   1.499   9.433   4.154
 5944SOL     OW21625   1.547   9.532   5.453
 5944SOL    HW121626   1.542   9.569   5.545
 5944SOL    HW221627   1.475   9.463   5.441
 5945SOL     OW21628   0.614   9.432   3.841
 5945SOL    HW121629   0.712   9.410   3.848
 5945SOL    HW221630   0.583   9.415   3.748
 5946SOL     OW21631   0.781   9.574   5.473
 5946SOL    HW121632   0.848   9.513   5.516
 5946SOL    HW221633   0.708   9.593   5.538
 5947SOL     OW21634   1.351   9.900   5.157
 5947SOL    HW121635   1.379   9.857   5.242
 5947SOL    HW221636   1.376   9.996   5.158
 5948SOL     OW21637   0.922   9.813   4.623
 5948SOL    HW121638   0.897   9.804   4.527
 5948SOL    HW221639   0.970   9.731   4.654
 5949SOL     OW21640   0.539   9.374   4.236
 5949SOL    HW121641   0.458   9.375   4.294
 5949SOL    HW221642   0.542   9.457   4.181
 5950SOL     OW21643   0.297   9.345   3.895
 5950SOL    HW121644   0.346   9.429   3.874
 5950SOL    HW221645   0.359   9.280   3.940
 5951SOL     OW21646   0.935   9.546   4.204
 5951SOL    HW121647   0.887   9.587   4.126
 5951SOL    HW221648   1.034   9.544   4.185
 5952SOL     OW21649   1.076   9.993   5.188
 5952SOL    HW121650   0.996   9.932   5.191
 5952SOL    HW221651   1.157   9.940   5.164
 5953SOL     OW21652   1.032   9.859   3.740
 5953SOL    HW121653   0.991   9.941   3.701
 5953SOL    HW221654   1.096   9.885   3.813
 5954SOL     OW21655   0.078   9.866   5.110
 5954SOL    HW121656   0.170   9.865   5.069
 5954SOL    HW221657   0.072   9.940   5.177
 5955SOL     OW21658   0.866   9.764   4.366
 5955SOL    HW121659   0.834   9.836   4.304
 5955SOL    HW221660   0.890   9.683   4.313
 5956SOL     OW21661   1.017   9.349   4.477
 5956SOL    HW121662   0.945   9.354   4.408
 5956SOL    HW221663   0.993   9.280   4.546
 5957SOL     OW21664   1.466   9.900   4.716
 5957SOL    HW121665   1.436   9.805   4.723
 5957SOL    HW221666   1.539   9.916   4.782
 5958SOL     OW21667   0.527   9.566   4.052
 5958SOL    HW121668   0.554   9.507   3.977
 5958SOL    HW221669   0.527   9.661   4.021
 5959SOL     OW21670   0.915   9.399   5.126
 5959SOL    HW121671   0.940   9.379   5.031
 5959SOL    HW221672   0.987   9.455   5.168
 5960SOL     OW21673   1.274   9.696   4.986
 5960SOL    HW121674   1.295   9.770   5.050
 5960SOL    HW221675   1.185   9.713   4.943
 5961SOL     OW21676   0.566   9.847   4.589
 5961SOL    HW121677   0.578   9.913   4.515
 5961SOL    HW221678   0.612   9.881   4.672
 5962SOL     OW21679   1.582   9.949   4.196
 5962SOL    HW121680   1.551  10.010   4.269
 5962SOL    HW221681   1.632  10.001   4.127
 5963SOL     OW21682   1.013   9.415   5.494
 5963SOL    HW121683   1.019   9.500   5.442
 5963SOL    HW221684   1.045   9.339   5.437
 5964SOL     OW21685   0.504   9.360   5.464
 5964SOL    HW121686   0.462   9.303   5.394
 5964SOL    HW221687   0.438   9.429   5.496
 5965SOL     OW21688   1.209   9.835   3.999
 5965SOL    HW121689   1.222   9.751   4.053
 5965SOL    HW221690   1.180   9.909   4.059
 5966SOL     OW21691   0.307   9.373   4.342
 5966SOL    HW121692   0.296   9.467   4.375
 5966SOL    HW221693   0.302   9.310   4.419
 5967SOL     OW21694   1.622   9.677   4.098
 5967SOL    HW121695   1.624   9.601   4.162
 5967SOL    HW221696   1.574   9.754   4.138
 5968SOL     OW21697   1.540   9.584   3.849
 5968SOL    HW121698   1.479   9.509   3.872
 5968SOL    HW221699   1.562   9.636   3.932
 5969SOL     OW21700   0.319  10.120   4.673
 5969SOL    HW121701   0.412  10.156   4.678
 5969SOL    HW221702   0.313  10.035   4.725
 5970SOL     OW21703   1.138   9.690   5.402
 5970SOL    HW121704   1.093   9.753   5.466
 5970SOL    HW221705   1.231   9.721   5.385
 5971SOL     OW21706   1.160   9.517   5.201
 5971SOL    HW121707   1.160   9.581   5.278
 5971SOL    HW221708   1.188   9.565   5.118
 5972SOL     OW21709   0.040   9.854   4.838
 5972SOL    HW121710   0.125   9.821   4.797
 5972SOL    HW221711   0.053   9.869   4.936
 5973SOL     OW21712   0.189   9.830   5.446
 5973SOL    HW121713   0.248   9.790   5.376
 5973SOL    HW221714   0.131   9.901   5.405
 5974SOL     OW21715   0.815   9.882   4.049
 5974SOL    HW121716   0.822   9.793   4.003
 5974SOL    HW221717   0.721   9.916   4.041
 5975SOL     OW21718   1.657   9.914   4.930
 5975SOL    HW121719   1.619   9.845   4.992
 5975SOL    HW221720   1.739   9.878   4.886
 5976SOL     OW21721   1.726   9.445   4.247
 5976SOL    HW121722   1.799   9.428   4.180
 5976SOL    HW221723   1.695   9.358   4.285
 5977SOL     OW21724   0.263   9.636   4.444
 5977SOL    HW121725   0.184   9.687   4.410
 5977SOL    HW221726   0.254   9.621   4.542
 5978SOL     OW21727   1.014   9.546   4.695
 5978SOL    HW121728   1.006   9.510   4.602
 5978SOL    HW221729   1.012   9.470   4.760
 5979SOL     OW21730   1.709   9.695   5.105
 5979SOL    HW121731   1.782   9.764   5.109
 5979SOL    HW221732   1.737   9.620   5.046
 5980SOL     OW21733   0.672   9.513   5.213
 5980SOL    HW121734   0.762   9.497   5.173
 5980SOL    HW221735   0.680   9.518   5.312
 5981SOL     OW21736   0.075   9.655   3.757
 5981SOL    HW121737  -0.017   9.627   3.728
 5981SOL    HW221738   0.106   9.732   3.701
 5982SOL     OW21739   0.072   9.476   4.042
 5982SOL    HW121740   0.055   9.559   3.988
 5982SOL    HW221741   0.162   9.439   4.020
 5983SOL     OW21742   0.716   9.875   5.432
 5983SOL    HW121743   0.735   9.940   5.506
 5983SOL    HW221744   0.776   9.795   5.441
 5984SOL     OW21745   1.225   9.635   4.173
 5984SOL    HW121746   1.290   9.561   4.162
 5984SOL    HW221747   1.245   9.685   4.257
 5985SOL     OW21748   1.777   9.652   5.366
 5985SOL    HW121749   1.760   9.683   5.272
 5985SOL    HW221750   1.693   9.615   5.404
 5986SOL     OW21751   1.083  10.294   3.811
 5986SOL    HW121752   1.060  10.347   3.729
 5986SOL    HW221753   1.164  10.238   3.792
 5987SOL     OW21754   0.428   9.734   4.244
 5987SOL    HW121755   0.458   9.662   4.182
 5987SOL    HW221756   0.389   9.694   4.327
 5988SOL     OW21757   1.001   9.344   4.878
 5988SOL    HW121758   0.938   9.272   4.847
 5988SOL    HW221759   1.094   9.308   4.878
 5989SOL     OW21760   1.352   9.362   3.892
 5989SOL    HW121761   1.387   9.321   3.808
 5989SOL    HW221762   1.262   9.324   3.912
 5990SOL     OW21763   1.300   9.763   4.415
 5990SOL    HW121764   1.241   9.843   4.419
 5990SOL    HW221765   1.315   9.728   4.508
 5991SOL     OW21766   0.225   9.585   6.582
 5991SOL    HW121767   0.260   9.568   6.674
 5991SOL    HW221768   0.137   9.540   6.570
 5992SOL     OW21769   0.019   9.678   6.233
 5992SOL    HW121770  -0.063   9.721   6.272
 5992SOL    HW221771  -0.009   9.605   6.170
 5993SOL     OW21772   1.755   9.917   5.817
 5993SOL    HW121773   1.743   9.904   5.718
 5993SOL    HW221774   1.725   9.836   5.866
 5994SOL     OW21775   0.438   9.702   7.085
 5994SOL    HW121776   0.520   9.646   7.094
 5994SOL    HW221777   0.357   9.644   7.089
 5995SOL     OW21778   1.603   9.757   6.323
 5995SOL    HW121779   1.529   9.803   6.273
 5995SOL    HW221780   1.654   9.825   6.376
 5996SOL     OW21781   1.594   9.424   7.066
 5996SOL    HW121782   1.576   9.491   6.994
 5996SOL    HW221783   1.591   9.470   7.155
 5997SOL     OW21784   0.122   9.953   6.149
 5997SOL    HW121785   0.077   9.865   6.166
 5997SOL    HW221786   0.121  10.007   6.233
 5998SOL     OW21787   0.809   9.314   6.088
 5998SOL    HW121788   0.849   9.405   6.079
 5998SOL    HW221789   0.709   9.322   6.094
 5999SOL     OW21790   0.317   9.561   7.387
 5999SOL    HW121791   0.388   9.632   7.393
 5999SOL    HW221792   0.229   9.600   7.415
 6000SOL     OW21793   1.281   9.655   6.530
 6000SOL    HW121794   1.195   9.605   6.517
 6000SOL    HW221795   1.343   9.601   6.586
 6001SOL     OW21796   0.807   9.915   7.051
 6001SOL    HW121797   0.760   9.912   7.140
 6001SOL    HW221798   0.756   9.860   6.985
 6002SOL     OW21799   1.394   9.779   7.260
 6002SOL    HW121800   1.374   9.822   7.348
 6002SOL    HW221801   1.472   9.717   7.269
 6003SOL     OW21802   0.991   9.720   6.828
 6003SOL    HW121803   0.914   9.754   6.882
 6003SOL    HW221804   0.957   9.669   6.749
 6004SOL     OW21805   1.041  10.011   6.015
 6004SOL    HW121806   1.067  10.007   6.111
 6004SOL    HW221807   0.956   9.960   6.001
 6005SOL     OW21808   0.076  10.121   6.375
 6005SOL    HW121809   0.175  10.109   6.384
 6005SOL    HW221810   0.052  10.216   6.396
 6006SOL     OW21811   0.865   9.658   5.781
 6006SOL    HW121812   0.924   9.721   5.732
 6006SOL    HW221813   0.884   9.564   5.752
 6007SOL     OW21814   1.719   9.895   7.417
 6007SOL    HW121815   1.693   9.984   7.381
 6007SOL    HW221816   1.717   9.827   7.344
 6008SOL     OW21817   0.550   9.506   6.471
 6008SOL    HW121818   0.545   9.501   6.571
 6008SOL    HW221819   0.552   9.602   6.442
 6009SOL     OW21820   1.458  10.045   6.314
 6009SOL    HW121821   1.453   9.980   6.389
 6009SOL    HW221822   1.538  10.104   6.327
 6010SOL     OW21823   0.202   9.595   7.084
 6010SOL    HW121824   0.122   9.655   7.071
 6010SOL    HW221825   0.192   9.546   7.170
 6011SOL     OW21826   1.400   9.417   6.012
 6011SOL    HW121827   1.376   9.380   5.922
 6011SOL    HW221828   1.499   9.433   6.016
 6012SOL     OW21829   1.547   9.532   7.315
 6012SOL    HW121830   1.542   9.569   7.407
 6012SOL    HW221831   1.475   9.463   7.303
 6013SOL     OW21832   0.614   9.432   5.703
 6013SOL    HW121833   0.712   9.410   5.710
 6013SOL    HW221834   0.583   9.415   5.610
 6014SOL     OW21835   0.781   9.574   7.335
 6014SOL    HW121836   0.848   9.513   7.378
 6014SOL    HW221837   0.708   9.593   7.400
 6015SOL     OW21838   0.922   9.813   6.485
 6015SOL    HW121839   0.897   9.804   6.389
 6015SOL    HW221840   0.970   9.731   6.516
 6016SOL     OW21841   0.539   9.374   6.098
 6016SOL    HW121842   0.458   9.375   6.156
 6016SOL    HW221843   0.542   9.457   6.043
 6017SOL     OW21844   0.297   9.345   5.757
 6017SOL    HW121845   0.346   9.429   5.736
 6017SOL    HW221846   0.359   9.280   5.802
 6018SOL     OW21847   0.935   9.546   6.066
 6018SOL    HW121848   0.887   9.587   5.988
 6018SOL    HW221849   1.034   9.544   6.047
 6019SOL     OW21850   1.076   9.993   7.050
 6019SOL    HW121851   0.996   9.932   7.053
 6019SOL    HW221852   1.157   9.940   7.026
 6020SOL     OW21853   1.032   9.859   5.602
 6020SOL    HW121854   0.991   9.941   5.563
 6020SOL    HW221855   1.096   9.885   5.675
 6021SOL     OW21856   0.078   9.866   6.972
 6021SOL    HW121857   0.170   9.865   6.931
 6021SOL    HW221858   0.072   9.940   7.039
 6022SOL     OW21859   0.561   9.532   6.733
 6022SOL    HW121860   0.599   9.448   6.770
 6022SOL    HW221861   0.473   9.551   6.777
 6023SOL     OW21862   0.866   9.764   6.228
 6023SOL    HW121863   0.834   9.836   6.166
 6023SOL    HW221864   0.890   9.683   6.175
 6024SOL     OW21865   1.017   9.349   6.339
 6024SOL    HW121866   0.945   9.354   6.270
 6024SOL    HW221867   0.993   9.280   6.408
 6025SOL     OW21868   1.466   9.900   6.578
 6025SOL    HW121869   1.436   9.805   6.585
 6025SOL    HW221870   1.539   9.916   6.644
 6026SOL     OW21871   0.527   9.566   5.914
 6026SOL    HW121872   0.554   9.507   5.839
 6026SOL    HW221873   0.527   9.661   5.883
 6027SOL     OW21874   0.915   9.399   6.988
 6027SOL    HW121875   0.940   9.379   6.893
 6027SOL    HW221876   0.987   9.455   7.030
 6028SOL     OW21877   0.566   9.847   6.451
 6028SOL    HW121878   0.578   9.913   6.377
 6028SOL    HW221879   0.612   9.881   6.534
 6029SOL     OW21880   1.582   9.949   6.058
 6029SOL    HW121881   1.551  10.010   6.131
 6029SOL    HW221882   1.632  10.001   5.989
 6030SOL     OW21883   1.013   9.415   7.356
 6030SOL    HW121884   1.019   9.500   7.304
 6030SOL    HW221885   1.045   9.339   7.299
 6031SOL     OW21886   0.504   9.360   7.326
 6031SOL    HW121887   0.462   9.303   7.256
 6031SOL    HW221888   0.438   9.429   7.358
 6032SOL     OW21889   1.209   9.835   5.861
 6032SOL    HW121890   1.222   9.751   5.915
 6032SOL    HW221891   1.180   9.909   5.921
 6033SOL     OW21892   0.307   9.523   6.817
 6033SOL    HW121893   0.284   9.560   6.907
 6033SOL    HW221894   0.277   9.428   6.811
 6034SOL     OW21895   0.732   9.944   6.650
 6034SOL    HW121896   0.791   9.918   6.574
 6034SOL    HW221897   0.704  10.040   6.639
 6035SOL     OW21898   0.307   9.373   6.204
 6035SOL    HW121899   0.296   9.467   6.237
 6035SOL    HW221900   0.302   9.310   6.281
 6036SOL     OW21901   1.622   9.677   5.960
 6036SOL    HW121902   1.624   9.601   6.024
 6036SOL    HW221903   1.574   9.754   6.000
 6037SOL     OW21904   1.540   9.584   5.711
 6037SOL    HW121905   1.479   9.509   5.734
 6037SOL    HW221906   1.562   9.636   5.794
 6038SOL     OW21907   0.319  10.120   6.535
 6038SOL    HW121908   0.412  10.156   6.540
 6038SOL    HW221909   0.313  10.035   6.587
 6039SOL     OW21910   0.339   9.819   6.592
 6039SOL    HW121911   0.287   9.736   6.575
 6039SOL    HW221912   0.416   9.824   6.528
 6040SOL     OW21913   1.138   9.690   7.264
 6040SOL    HW121914   1.093   9.753   7.328
 6040SOL    HW221915   1.231   9.721   7.247
 6041SOL     OW21916   1.160   9.517   7.063
 6041SOL    HW121917   1.160   9.581   7.140
 6041SOL    HW221918   1.188   9.565   6.980
 6042SOL     OW21919   0.040   9.854   6.700
 6042SOL    HW121920   0.125   9.821   6.659
 6042SOL    HW221921   0.053   9.869   6.798
 6043SOL     OW21922   0.189   9.830   7.308
 6043SOL    HW121923   0.248   9.790   7.238
 6043SOL    HW221924   0.131   9.901   7.267
 6044SOL     OW21925   0.815   9.882   5.911
 6044SOL    HW121926   0.822   9.793   5.865
 6044SOL    HW221927   0.721   9.916   5.903
 6045SOL     OW21928   0.671   9.774   6.855
 6045SOL    HW121929   0.637   9.685   6.825
 6045SOL    HW221930   0.697   9.828   6.775
 6046SOL     OW21931   1.726   9.445   6.109
 6046SOL    HW121932   1.799   9.428   6.042
 6046SOL    HW221933   1.695   9.358   6.147
 6047SOL     OW21934   1.841   9.485   6.549
 6047SOL    HW121935   1.880   9.400   6.513
 6047SOL    HW221936   1.743   9.487   6.530
 6048SOL     OW21937   0.263   9.636   6.306
 6048SOL    HW121938   0.184   9.687   6.272
 6048SOL    HW221939   0.254   9.621   6.404
 6049SOL     OW21940   1.014   9.546   6.557
 6049SOL    HW121941   1.006   9.510   6.464
 6049SOL    HW221942   1.012   9.470   6.622
 6050SOL     OW21943   1.709   9.695   6.967
 6050SOL    HW121944   1.782   9.764   6.971
 6050SOL    HW221945   1.737   9.620   6.908
 6051SOL     OW21946   0.672   9.513   7.075
 6051SOL    HW121947   0.762   9.497   7.035
 6051SOL    HW221948   0.680   9.518   7.174
 6052SOL     OW21949   0.075   9.655   5.619
 6052SOL    HW121950  -0.017   9.627   5.590
 6052SOL    HW221951   0.106   9.732   5.563
 6053SOL     OW21952   0.072   9.476   5.904
 6053SOL    HW121953   0.055   9.559   5.850
 6053SOL    HW221954   0.162   9.439   5.882
 6054SOL     OW21955   0.716   9.875   7.294
 6054SOL    HW121956   0.735   9.940   7.368
 6054SOL    HW221957   0.776   9.795   7.303
 6055SOL     OW21958   1.225   9.635   6.035
 6055SOL    HW121959   1.290   9.561   6.024
 6055SOL    HW221960   1.245   9.685   6.119
 6056SOL     OW21961   1.777   9.652   7.228
 6056SOL    HW121962   1.760   9.683   7.134
 6056SOL    HW221963   1.693   9.615   7.266
 6057SOL     OW21964   1.083  10.294   5.673
 6057SOL    HW121965   1.060  10.347   5.591
 6057SOL    HW221966   1.164  10.238   5.654
 6058SOL     OW21967   1.824   9.502   6.813
 6058SOL    HW121968   1.820   9.412   6.857
 6058SOL    HW221969   1.827   9.491   6.714
 6059SOL     OW21970   0.428   9.734   6.106
 6059SOL    HW121971   0.458   9.662   6.044
 6059SOL    HW221972   0.389   9.694   6.189
 6060SOL     OW21973   0.317   9.857   6.866
 6060SOL    HW121974   0.355   9.798   6.938
 6060SOL    HW221975   0.357   9.831   6.778
 6061SOL     OW21976   1.424   9.524   6.698
 6061SOL    HW121977   1.476   9.459   6.753
 6061SOL    HW221978   1.375   9.587   6.759
 6062SOL     OW21979   1.001   9.344   6.740
 6062SOL    HW121980   0.938   9.272   6.709
 6062SOL    HW221981   1.094   9.308   6.740
 6063SOL     OW21982   1.352   9.362   5.754
 6063SOL    HW121983   1.387   9.321   5.670
 6063SOL    HW221984   1.262   9.324   5.774
 6064SOL     OW21985   1.300   9.763   6.277
 6064SOL    HW121986   1.241   9.843   6.281
 6064SOL    HW221987   1.315   9.728   6.370
 6065SOL     OW21988   1.593   9.531   6.468
 6065SOL    HW121989   1.509   9.530   6.522
 6065SOL    HW221990   1.595   9.614   6.412
 6066SOL     OW21991   0.225   9.585   8.444
 6066SOL    HW121992   0.260   9.568   8.536
 6066SOL    HW221993   0.137   9.540   8.432
 6067SOL     OW21994   0.019   9.678   8.095
 6067SOL    HW121995  -0.063   9.721   8.134
 6067SOL    HW221996  -0.009   9.605   8.032
 6068SOL     OW21997   1.755   9.917   7.679
 6068SOL    HW121998   1.743   9.904   7.580
 6068SOL    HW221999   1.725   9.836   7.728
 6069SOL     OW22000   0.438   9.702   8.947
 6069SOL    HW122001   0.520   9.646   8.956
 6069SOL    HW222002   0.357   9.644   8.951
 6070SOL     OW22003   1.603   9.757   8.185
 6070SOL    HW122004   1.529   9.803   8.135
 6070SOL    HW222005   1.654   9.825   8.238
 6071SOL     OW22006   1.594   9.424   8.928
 6071SOL    HW122007   1.576   9.491   8.856
 6071SOL    HW222008   1.591   9.470   9.017
 6072SOL     OW22009   0.122   9.953   8.011
 6072SOL    HW122010   0.077   9.865   8.028
 6072SOL    HW222011   0.121  10.007   8.095
 6073SOL     OW22012   0.809   9.314   7.950
 6073SOL    HW122013   0.849   9.405   7.941
 6073SOL    HW222014   0.709   9.322   7.956
 6074SOL     OW22015   0.317   9.561   9.249
 6074SOL    HW122016   0.388   9.632   9.255
 6074SOL    HW222017   0.229   9.600   9.277
 6075SOL     OW22018   1.281   9.655   8.392
 6075SOL    HW122019   1.195   9.605   8.379
 6075SOL    HW222020   1.343   9.601   8.448
 6076SOL     OW22021   0.807   9.915   8.913
 6076SOL    HW122022   0.760   9.912   9.002
 6076SOL    HW222023   0.756   9.860   8.847
 6077SOL     OW22024   1.394   9.779   9.122
 6077SOL    HW122025   1.374   9.822   9.210
 6077SOL    HW222026   1.472   9.717   9.131
 6078SOL     OW22027   0.991   9.720   8.690
 6078SOL    HW122028   0.914   9.754   8.744
 6078SOL    HW222029   0.957   9.669   8.611
 6079SOL     OW22030   1.041  10.011   7.877
 6079SOL    HW122031   1.067  10.007   7.973
 6079SOL    HW222032   0.956   9.960   7.863
 6080SOL     OW22033   0.076  10.121   8.237
 6080SOL    HW122034   0.175  10.109   8.246
 6080SOL    HW222035   0.052  10.216   8.258
 6081SOL     OW22036   0.865   9.658   7.643
 6081SOL    HW122037   0.924   9.721   7.594
 6081SOL    HW222038   0.884   9.564   7.614
 6082SOL     OW22039   1.719   9.895   9.279
 6082SOL    HW122040   1.693   9.984   9.243
 6082SOL    HW222041   1.717   9.827   9.206
 6083SOL     OW22042   0.550   9.506   8.333
 6083SOL    HW122043   0.545   9.501   8.433
 6083SOL    HW222044   0.552   9.602   8.304
 6084SOL     OW22045   0.202   9.595   8.946
 6084SOL    HW122046   0.122   9.655   8.933
 6084SOL    HW222047   0.192   9.546   9.032
 6085SOL     OW22048   1.400   9.417   7.874
 6085SOL    HW122049   1.376   9.380   7.784
 6085SOL    HW222050   1.499   9.433   7.878
 6086SOL     OW22051   1.547   9.532   9.177
 6086SOL    HW122052   1.542   9.569   9.269
 6086SOL    HW222053   1.475   9.463   9.165
 6087SOL     OW22054   0.614   9.432   7.565
 6087SOL    HW122055   0.712   9.410   7.572
 6087SOL    HW222056   0.583   9.415   7.472
 6088SOL     OW22057   0.781   9.574   9.197
 6088SOL    HW122058   0.848   9.513   9.240
 6088SOL    HW222059   0.708   9.593   9.262
 6089SOL     OW22060   1.351   9.900   8.881
 6089SOL    HW122061   1.379   9.857   8.966
 6089SOL    HW222062   1.376   9.996   8.882
 6090SOL     OW22063   0.922   9.813   8.347
 6090SOL    HW122064   0.897   9.804   8.251
 6090SOL    HW222065   0.970   9.731   8.378
 6091SOL     OW22066   0.539   9.374   7.960
 6091SOL    HW122067   0.458   9.375   8.018
 6091SOL    HW222068   0.542   9.457   7.905
 6092SOL     OW22069   0.297   9.345   7.619
 6092SOL    HW122070   0.346   9.429   7.598
 6092SOL    HW222071   0.359   9.280   7.664
 6093SOL     OW22072   0.935   9.546   7.928
 6093SOL    HW122073   0.887   9.587   7.850
 6093SOL    HW222074   1.034   9.544   7.909
 6094SOL     OW22075   1.076   9.993   8.912
 6094SOL    HW122076   0.996   9.932   8.915
 6094SOL    HW222077   1.157   9.940   8.888
 6095SOL     OW22078   1.032   9.859   7.464
 6095SOL    HW122079   0.991   9.941   7.425
 6095SOL    HW222080   1.096   9.885   7.537
 6096SOL     OW22081   0.078   9.866   8.834
 6096SOL    HW122082   0.170   9.865   8.793
 6096SOL    HW222083   0.072   9.940   8.901
 6097SOL     OW22084   0.561   9.532   8.595
 6097SOL    HW122085   0.599   9.448   8.632
 6097SOL    HW222086   0.473   9.551   8.639
 6098SOL     OW22087   0.866   9.764   8.090
 6098SOL    HW122088   0.834   9.836   8.028
 6098SOL    HW222089   0.890   9.683   8.037
 6099SOL     OW22090   1.017   9.349   8.201
 6099SOL    HW122091   0.945   9.354   8.132
 6099SOL    HW222092   0.993   9.280   8.270
 6100SOL     OW22093   1.466   9.900   8.440
 6100SOL    HW122094   1.436   9.805   8.447
 6100SOL    HW222095   1.539   9.916   8.506
 6101SOL     OW22096   0.527   9.566   7.776
 6101SOL    HW122097   0.554   9.507   7.701
 6101SOL    HW222098   0.527   9.661   7.745
 6102SOL     OW22099   0.915   9.399   8.850
 6102SOL    HW122100   0.940   9.379   8.755
 6102SOL    HW222101   0.987   9.455   8.892
 6103SOL     OW22102   1.274   9.696   8.710
 6103SOL    HW122103   1.295   9.770   8.774
 6103SOL    HW222104   1.185   9.713   8.667
 6104SOL     OW22105   0.566   9.847   8.313
 6104SOL    HW122106   0.578   9.913   8.239
 6104SOL    HW222107   0.612   9.881   8.396
 6105SOL     OW22108   1.582   9.949   7.920
 6105SOL    HW122109   1.551  10.010   7.993
 6105SOL    HW222110   1.632  10.001   7.851
 6106SOL     OW22111   1.013   9.415   9.218
 6106SOL    HW122112   1.019   9.500   9.166
 6106SOL    HW222113   1.045   9.339   9.161
 6107SOL     OW22114   0.504   9.360   9.188
 6107SOL    HW122115   0.462   9.303   9.118
 6107SOL    HW222116   0.438   9.429   9.220
 6108SOL     OW22117   1.209   9.835   7.723
 6108SOL    HW122118   1.222   9.751   7.777
 6108SOL    HW222119   1.180   9.909   7.783
 6109SOL     OW22120   0.307   9.523   8.679
 6109SOL    HW122121   0.284   9.560   8.769
 6109SOL    HW222122   0.277   9.428   8.673
 6110SOL     OW22123   0.732   9.944   8.512
 6110SOL    HW122124   0.791   9.918   8.436
 6110SOL    HW222125   0.704  10.040   8.501
 6111SOL     OW22126   0.307   9.373   8.066
 6111SOL    HW122127   0.296   9.467   8.099
 6111SOL    HW222128   0.302   9.310   8.143
 6112SOL     OW22129   1.622   9.677   7.822
 6112SOL    HW122130   1.624   9.601   7.886
 6112SOL    HW222131   1.574   9.754   7.862
 6113SOL     OW22132   1.540   9.584   7.573
 6113SOL    HW122133   1.479   9.509   7.596
 6113SOL    HW222134   1.562   9.636   7.656
 6114SOL     OW22135   0.319  10.120   8.397
 6114SOL    HW122136   0.412  10.156   8.402
 6114SOL    HW222137   0.313  10.035   8.449
 6115SOL     OW22138   0.339   9.819   8.454
 6115SOL    HW122139   0.287   9.736   8.437
 6115SOL    HW222140   0.416   9.824   8.390
 6116SOL     OW22141   1.138   9.690   9.126
 6116SOL    HW122142   1.093   9.753   9.190
 6116SOL    HW222143   1.231   9.721   9.109
 6117SOL     OW22144   1.160   9.517   8.925
 6117SOL    HW122145   1.160   9.581   9.002
 6117SOL    HW222146   1.188   9.565   8.842
 6118SOL     OW22147   0.040   9.854   8.562
 6118SOL    HW122148   0.125   9.821   8.521
 6118SOL    HW222149   0.053   9.869   8.660
 6119SOL     OW22150   0.189   9.830   9.170
 6119SOL    HW122151   0.248   9.790   9.100
 6119SOL    HW222152   0.131   9.901   9.129
 6120SOL     OW22153   0.815   9.882   7.773
 6120SOL    HW122154   0.822   9.793   7.727
 6120SOL    HW222155   0.721   9.916   7.765
 6121SOL     OW22156   0.671   9.774   8.717
 6121SOL    HW122157   0.637   9.685   8.687
 6121SOL    HW222158   0.697   9.828   8.637
 6122SOL     OW22159   1.726   9.445   7.971
 6122SOL    HW122160   1.799   9.428   7.904
 6122SOL    HW222161   1.695   9.358   8.009
 6123SOL     OW22162   0.263   9.636   8.168
 6123SOL    HW122163   0.184   9.687   8.134
 6123SOL    HW222164   0.254   9.621   8.266
 6124SOL     OW22165   1.014   9.546   8.419
 6124SOL    HW122166   1.006   9.510   8.326
 6124SOL    HW222167   1.012   9.470   8.484
 6125SOL     OW22168   1.709   9.695   8.829
 6125SOL    HW122169   1.782   9.764   8.833
 6125SOL    HW222170   1.737   9.620   8.770
 6126SOL     OW22171   0.672   9.513   8.937
 6126SOL    HW122172   0.762   9.497   8.897
 6126SOL    HW222173   0.680   9.518   9.036
 6127SOL     OW22174   0.075   9.655   7.481
 6127SOL    HW122175  -0.017   9.627   7.452
 6127SOL    HW222176   0.106   9.732   7.425
 6128SOL     OW22177   0.072   9.476   7.766
 6128SOL    HW122178   0.055   9.559   7.712
 6128SOL    HW222179   0.162   9.439   7.744
 6129SOL     OW22180   0.716   9.875   9.156
 6129SOL    HW122181   0.735   9.940   9.230
 6129SOL    HW222182   0.776   9.795   9.165
 6130SOL     OW22183   1.225   9.635   7.897
 6130SOL    HW122184   1.290   9.561   7.886
 6130SOL    HW222185   1.245   9.685   7.981
 6131SOL     OW22186   1.777   9.652   9.090
 6131SOL    HW122187   1.760   9.683   8.996
 6131SOL    HW222188   1.693   9.615   9.128
 6132SOL     OW22189   1.083  10.294   7.535
 6132SOL    HW122190   1.060  10.347   7.453
 6132SOL    HW222191   1.164  10.238   7.516
 6133SOL     OW22192   0.428   9.734   7.968
 6133SOL    HW122193   0.458   9.662   7.906
 6133SOL    HW222194   0.389   9.694   8.051
 6134SOL     OW22195   0.317   9.857   8.728
 6134SOL    HW122196   0.355   9.798   8.800
 6134SOL    HW222197   0.357   9.831   8.640
 6135SOL     OW22198   1.424   9.524   8.560
 6135SOL    HW122199   1.476   9.459   8.615
 6135SOL    HW222200   1.375   9.587   8.621
 6136SOL     OW22201   1.001   9.344   8.602
 6136SOL    HW122202   0.938   9.272   8.571
 6136SOL    HW222203   1.094   9.308   8.602
 6137SOL     OW22204   1.352   9.362   7.616
 6137SOL    HW122205   1.387   9.321   7.532
 6137SOL    HW222206   1.262   9.324   7.636
 6138SOL     OW22207   1.300   9.763   8.139
 6138SOL    HW122208   1.241   9.843   8.143
 6138SOL    HW222209   1.315   9.728   8.232
 6139SOL     OW22210   1.593   9.531   8.330
 6139SOL    HW122211   1.509   9.530   8.384
 6139SOL    HW222212   1.595   9.614   8.274
 6140SOL     OW22213   1.755   9.917   9.541
 6140SOL    HW122214   1.743   9.904   9.442
 6140SOL    HW222215   1.725   9.836   9.590
 6141SOL     OW22216   0.122   9.953   9.873
 6141SOL    HW122217   0.077   9.865   9.890
 6141SOL    HW222218   0.121  10.007   9.957
 6142SOL     OW22219   0.809   9.314   9.812
 6142SOL    HW122220   0.849   9.405   9.803
 6142SOL    HW222221   0.709   9.322   9.818
 6143SOL     OW22222   1.041  10.011   9.739
 6143SOL    HW122223   1.067  10.007   9.835
 6143SOL    HW222224   0.956   9.960   9.725
 6144SOL     OW22225   0.076  10.121  10.099
 6144SOL    HW122226   0.175  10.109  10.108
 6144SOL    HW222227   0.052  10.216  10.120
 6145SOL     OW22228   0.865   9.658   9.505
 6145SOL    HW122229   0.924   9.721   9.456
 6145SOL    HW222230   0.884   9.564   9.476
 6146SOL     OW22231   1.400   9.417   9.736
 6146SOL    HW122232   1.376   9.380   9.646
 6146SOL    HW222233   1.499   9.433   9.740
 6147SOL     OW22234   0.614   9.432   9.427
 6147SOL    HW122235   0.712   9.410   9.434
 6147SOL    HW222236   0.583   9.415   9.334
 6148SOL     OW22237   0.539   9.374   9.822
 6148SOL    HW122238   0.458   9.375   9.880
 6148SOL    HW222239   0.542   9.457   9.767
 6149SOL     OW22240   0.297   9.345   9.481
 6149SOL    HW122241   0.346   9.429   9.460
 6149SOL    HW222242   0.359   9.280   9.526
 6150SOL     OW22243   0.935   9.546   9.790
 6150SOL    HW122244   0.887   9.587   9.712
 6150SOL    HW222245   1.034   9.544   9.771
 6151SOL     OW22246   1.032   9.859   9.326
 6151SOL    HW122247   0.991   9.941   9.287
 6151SOL    HW222248   1.096   9.885   9.399
 6152SOL     OW22249   0.866   9.764   9.952
 6152SOL    HW122250   0.834   9.836   9.890
 6152SOL    HW222251   0.890   9.683   9.899
 6153SOL     OW22252   0.527   9.566   9.638
 6153SOL    HW122253   0.554   9.507   9.563
 6153SOL    HW222254   0.527   9.661   9.607
 6154SOL     OW22255   1.582   9.949   9.782
 6154SOL    HW122256   1.551  10.010   9.855
 6154SOL    HW222257   1.632  10.001   9.713
 6155SOL     OW22258   1.209   9.835   9.585
 6155SOL    HW122259   1.222   9.751   9.639
 6155SOL    HW222260   1.180   9.909   9.645
 6156SOL     OW22261   0.307   9.373   9.928
 6156SOL    HW122262   0.296   9.467   9.961
 6156SOL    HW222263   0.302   9.310  10.005
 6157SOL     OW22264   1.622   9.677   9.684
 6157SOL    HW122265   1.624   9.601   9.748
 6157SOL    HW222266   1.574   9.754   9.724
 6158SOL     OW22267   1.540   9.584   9.435
 6158SOL    HW122268   1.479   9.509   9.458
 6158SOL    HW222269   1.562   9.636   9.518
 6159SOL     OW22270   0.339   9.819  10.316
 6159SOL    HW122271   0.287   9.736  10.299
 6159SOL    HW222272   0.416   9.824  10.252
 6160SOL     OW22273   0.815   9.882   9.635
 6160SOL    HW122274   0.822   9.793   9.589
 6160SOL    HW222275   0.721   9.916   9.627
 6161SOL     OW22276   1.726   9.445   9.833
 6161SOL    HW122277   1.799   9.428   9.766
 6161SOL    HW222278   1.695   9.358   9.871
 6162SOL     OW22279   0.075   9.655   9.343
 6162SOL    HW122280  -0.017   9.627   9.314
 6162SOL    HW222281   0.106   9.732   9.287
 6163SOL     OW22282   0.072   9.476   9.628
 6163SOL    HW122283   0.055   9.559   9.574
 6163SOL    HW222284   0.162   9.439   9.606
 6164SOL     OW22285   1.225   9.635   9.759
 6164SOL    HW122286   1.290   9.561   9.748
 6164SOL    HW222287   1.245   9.685   9.843
 6165SOL     OW22288   1.083  10.294   9.397
 6165SOL    HW122289   1.060  10.347   9.315
 6165SOL    HW222290   1.164  10.238   9.378
 6166SOL     OW22291   0.428   9.734   9.830
 6166SOL    HW122292   0.458   9.662   9.768
 6166SOL    HW222293   0.389   9.694   9.913
 6167SOL     OW22294   1.352   9.362   9.478
 6167SOL    HW122295   1.387   9.321   9.394
 6167SOL    HW222296   1.262   9.324   9.498
 6168SOL     OW22297   1.300   9.763  10.001
 6168SOL    HW122298   1.241   9.843  10.005
 6168SOL    HW222299   1.315   9.728  10.094
 6169SOL     OW22300   2.092   0.628   0.113
 6169SOL    HW122301   1.999   0.626   0.150
 6169SOL    HW222302   2.093   0.589   0.021
 6170SOL     OW22303   2.087   0.275   0.996
 6170SOL    HW122304   2.122   0.258   1.088
 6170SOL    HW222305   1.999   0.230   0.984
 6171SOL     OW22306   1.881   0.368   0.647
 6171SOL    HW122307   1.799   0.411   0.686
 6171SOL    HW222308   1.853   0.295   0.584
 6172SOL     OW22309   2.431   1.275   1.165
 6172SOL    HW122310   2.338   1.268   1.128
 6172SOL    HW222311   2.442   1.364   1.209
 6173SOL     OW22312   3.417   1.511   0.703
 6173SOL    HW122313   3.360   1.495   0.784
 6173SOL    HW222314   3.358   1.521   0.623
 6174SOL     OW22315   2.997   0.703   0.717
 6174SOL    HW122316   3.054   0.781   0.692
 6174SOL    HW222317   2.937   0.729   0.793
 6175SOL     OW22318   3.617   0.607   0.231
 6175SOL    HW122319   3.605   0.594   0.132
 6175SOL    HW222320   3.587   0.526   0.280
 6176SOL     OW22321   2.630   1.144   1.023
 6176SOL    HW122322   2.552   1.161   1.083
 6176SOL    HW222323   2.664   1.231   0.987
 6177SOL     OW22324   2.547   1.012   0.665
 6177SOL    HW122325   2.616   0.996   0.735
 6177SOL    HW222326   2.474   1.069   0.703
 6178SOL     OW22327   2.197   1.435   1.061
 6178SOL    HW122328   2.119   1.404   1.008
 6178SOL    HW222329   2.255   1.493   1.004
 6179SOL     OW22330   3.322   1.505   1.339
 6179SOL    HW122331   3.346   1.599   1.365
 6179SOL    HW222332   3.306   1.451   1.421
 6180SOL     OW22333   2.300   0.392   1.499
 6180SOL    HW122334   2.382   0.336   1.508
 6180SOL    HW222335   2.219   0.334   1.503
 6181SOL     OW22336   3.465   0.447   0.737
 6181SOL    HW122337   3.391   0.493   0.687
 6181SOL    HW222338   3.516   0.515   0.790
 6182SOL     OW22339   2.093   1.713   0.483
 6182SOL    HW122340   2.127   1.790   0.537
 6182SOL    HW222341   2.137   1.713   0.393
 6183SOL     OW22342   2.989   1.341   1.690
 6183SOL    HW122343   3.036   1.341   1.778
 6183SOL    HW222344   2.941   1.254   1.679
 6184SOL     OW22345   2.092   1.434   0.538
 6184SOL    HW122346   2.066   1.530   0.538
 6184SOL    HW222347   2.021   1.380   0.583
 6185SOL     OW22348   2.102   1.091   0.886
 6185SOL    HW122349   2.116   1.007   0.938
 6185SOL    HW222350   2.047   1.155   0.941
 6186SOL     OW22351   2.482   1.786   1.439
 6186SOL    HW122352   2.390   1.769   1.474
 6186SOL    HW222353   2.510   1.878   1.465
 6187SOL     OW22354   3.456   0.114   1.480
 6187SOL    HW122355   3.438   0.181   1.408
 6187SOL    HW222356   3.453   0.160   1.569
 6188SOL     OW22357   3.704   1.767   0.359
 6188SOL    HW122358   3.758   1.738   0.439
 6188SOL    HW222359   3.734   1.857   0.330
 6189SOL     OW22360   1.889   1.596   0.117
 6189SOL    HW122361   1.870   1.500   0.138
 6189SOL    HW222362   1.856   1.654   0.192
 6190SOL     OW22363   3.551   0.922   0.612
 6190SOL    HW122364   3.646   0.893   0.620
 6190SOL    HW222365   3.543   0.987   0.537
 6191SOL     OW22366   3.503   1.108   0.432
 6191SOL    HW122367   3.589   1.110   0.380
 6191SOL    HW222368   3.517   1.155   0.520
 6192SOL     OW22369   2.475   1.365   0.726
 6192SOL    HW122370   2.426   1.278   0.735
 6192SOL    HW222371   2.452   1.408   0.639
 6193SOL     OW22372   3.155   1.228   1.423
 6193SOL    HW122373   3.192   1.155   1.365
 6193SOL    HW222374   3.207   1.233   1.508
 6194SOL     OW22375   2.671   0.004   0.502
 6194SOL    HW122376   2.711   0.095   0.493
 6194SOL    HW222377   2.571   0.012   0.508
 6195SOL     OW22378   2.059   0.976   1.264
 6195SOL    HW122379   2.148   0.931   1.250
 6195SOL    HW222380   1.986   0.911   1.245
 6196SOL     OW22381   3.387   0.999   0.190
 6196SOL    HW122382   3.324   0.923   0.203
 6196SOL    HW222383   3.435   1.017   0.276
 6197SOL     OW22384   3.049   1.792   1.616
 6197SOL    HW122385   3.073   1.852   1.540
 6197SOL    HW222386   3.056   1.697   1.586
 6198SOL     OW22387   2.179   0.251   1.801
 6198SOL    HW122388   2.250   0.322   1.807
 6198SOL    HW222389   2.091   0.290   1.829
 6199SOL     OW22390   3.328   1.417   0.953
 6199SOL    HW122391   3.269   1.423   1.033
 6199SOL    HW222392   3.313   1.329   0.907
 6200SOL     OW22393   3.529   1.714   0.572
 6200SOL    HW122394   3.488   1.691   0.484
 6200SOL    HW222395   3.511   1.640   0.637
 6201SOL     OW22396   3.143   0.345   0.944
 6201SOL    HW122397   3.057   0.295   0.931
 6201SOL    HW222398   3.205   0.291   1.000
 6202SOL     OW22399   3.438   1.662   0.307
 6202SOL    HW122400   3.527   1.708   0.310
 6202SOL    HW222401   3.417   1.638   0.212
 6203SOL     OW22402   3.256   0.469   1.674
 6203SOL    HW122403   3.236   0.512   1.762
 6203SOL    HW222404   3.334   0.407   1.683
 6204SOL     OW22405   2.835   0.890   1.572
 6204SOL    HW122406   2.881   0.806   1.543
 6204SOL    HW222407   2.779   0.924   1.497
 6205SOL     OW22408   2.853   0.410   1.242
 6205SOL    HW122409   2.776   0.444   1.296
 6205SOL    HW222410   2.819   0.359   1.163
 6206SOL     OW22411   1.992   1.821   1.571
 6206SOL    HW122412   1.982   1.806   1.670
 6206SOL    HW222413   1.906   1.857   1.535
 6207SOL     OW22414   2.727   0.348   0.195
 6207SOL    HW122415   2.786   0.411   0.146
 6207SOL    HW222416   2.746   0.254   0.166
 6208SOL     OW22417   3.581   0.585   1.831
 6208SOL    HW122418   3.555   0.674   1.795
 6208SOL    HW222419   3.579   0.517   1.758
 6209SOL     OW22420   3.224   1.144   0.545
 6209SOL    HW122421   3.307   1.115   0.497
 6209SOL    HW222422   3.175   1.211   0.489
 6210SOL     OW22423   2.412   0.196   0.885
 6210SOL    HW122424   2.407   0.191   0.985
 6210SOL    HW222425   2.414   0.292   0.856
 6211SOL     OW22426   2.870   1.456   0.477
 6211SOL    HW122427   2.824   1.528   0.425
 6211SOL    HW222428   2.866   1.476   0.575
 6212SOL     OW22429   2.213   1.801   0.853
 6212SOL    HW122430   2.263   1.715   0.859
 6212SOL    HW222431   2.278   1.878   0.850
 6213SOL     OW22432   3.657   1.066   0.873
 6213SOL    HW122433   3.595   1.051   0.797
 6213SOL    HW222434   3.605   1.077   0.958
 6214SOL     OW22435   3.089   1.550   1.506
 6214SOL    HW122436   3.095   1.473   1.570
 6214SOL    HW222437   3.037   1.524   1.426
 6215SOL     OW22438   3.320   0.735   0.728
 6215SOL    HW122439   3.315   0.670   0.803
 6215SOL    HW222440   3.400   0.794   0.741
 6216SOL     OW22441   2.973   1.776   0.237
 6216SOL    HW122442   2.913   1.714   0.287
 6216SOL    HW222443   3.004   1.732   0.152
 6217SOL     OW22444   2.064   0.285   1.498
 6217SOL    HW122445   1.984   0.345   1.485
 6217SOL    HW222446   2.054   0.236   1.584
 6218SOL     OW22447   3.494   1.377   0.081
 6218SOL    HW122448   3.462   1.471   0.071
 6218SOL    HW222449   3.418   1.314   0.069
 6219SOL     OW22450   2.326   1.743   0.323
 6219SOL    HW122451   2.359   1.782   0.409
 6219SOL    HW222452   2.402   1.736   0.258
 6220SOL     OW22453   3.262   0.107   0.426
 6220SOL    HW122454   3.238   0.070   0.336
 6220SOL    HW222455   3.361   0.123   0.430
 6221SOL     OW22456   2.111   1.785   1.241
 6221SOL    HW122457   2.168   1.720   1.291
 6221SOL    HW222458   2.095   1.752   1.148
 6222SOL     OW22459   2.802   1.698   0.904
 6222SOL    HW122460   2.882   1.641   0.925
 6222SOL    HW222461   2.753   1.658   0.827
 6223SOL     OW22462   3.409   0.222   1.729
 6223SOL    HW122463   3.404   0.259   1.821
 6223SOL    HW222464   3.337   0.153   1.717
 6224SOL     OW22465   2.643   0.264   1.749
 6224SOL    HW122466   2.710   0.203   1.792
 6224SOL    HW222467   2.570   0.283   1.814
 6225SOL     OW22468   2.750   1.514   1.195
 6225SOL    HW122469   2.727   1.489   1.101
 6225SOL    HW222470   2.811   1.445   1.234
 6226SOL     OW22471   3.213   0.590   1.433
 6226SOL    HW122472   3.241   0.547   1.518
 6226SOL    HW222473   3.238   0.686   1.434
 6227SOL     OW22474   2.665   1.402   0.924
 6227SOL    HW122475   2.755   1.416   0.882
 6227SOL    HW222476   2.594   1.404   0.853
 6228SOL     OW22477   2.784   0.503   0.899
 6228SOL    HW122478   2.759   0.494   0.803
 6228SOL    HW222479   2.832   0.421   0.930
 6229SOL     OW22480   2.401   0.064   0.512
 6229SOL    HW122481   2.320   0.065   0.570
 6229SOL    HW222482   2.404   0.147   0.457
 6230SOL     OW22483   3.296   1.188   0.041
 6230SOL    HW122484   3.328   1.112   0.098
 6230SOL    HW222485   3.204   1.215   0.071
 6231SOL     OW22486   2.797   0.236   0.480
 6231SOL    HW122487   2.749   0.277   0.402
 6231SOL    HW222488   2.896   0.234   0.461
 6232SOL     OW22489   2.938   0.683   1.464
 6232SOL    HW122490   2.858   0.622   1.467
 6232SOL    HW222491   3.019   0.630   1.440
 6233SOL     OW22492   3.089   1.570   0.793
 6233SOL    HW122493   3.110   1.644   0.728
 6233SOL    HW222494   3.157   1.570   0.866
 6234SOL     OW22495   2.321   1.152   0.741
 6234SOL    HW122496   2.250   1.125   0.806
 6234SOL    HW222497   2.295   1.124   0.648
 6235SOL     OW22498   3.133   1.797   0.591
 6235SOL    HW122499   3.177   1.861   0.527
 6235SOL    HW222500   3.083   1.849   0.661
 6236SOL     OW22501   2.894   0.549   0.016
 6236SOL    HW122502   2.853   0.631  -0.023
 6236SOL    HW222503   2.958   0.575   0.089
 6237SOL     OW22504   2.423   0.222   1.147
 6237SOL    HW122505   2.461   0.138   1.184
 6237SOL    HW222506   2.335   0.241   1.191
 6238SOL     OW22507   2.728   0.454   0.642
 6238SOL    HW122508   2.696   0.526   0.580
 6238SOL    HW222509   2.752   0.373   0.589
 6239SOL     OW22510   2.879   0.039   0.753
 6239SOL    HW122511   2.807   0.044   0.684
 6239SOL    HW222512   2.855  -0.030   0.822
 6240SOL     OW22513   3.291   1.173   0.867
 6240SOL    HW122514   3.236   1.089   0.860
 6240SOL    HW222515   3.317   1.202   0.775
 6241SOL     OW22516   3.328   0.590   0.992
 6241SOL    HW122517   3.298   0.495   0.999
 6241SOL    HW222518   3.401   0.606   1.058
 6242SOL     OW22519   3.719   0.833   0.377
 6242SOL    HW122520   3.761   0.769   0.441
 6242SOL    HW222521   3.681   0.782   0.299
 6243SOL     OW22522   3.526   1.280   0.657
 6243SOL    HW122523   3.625   1.288   0.671
 6243SOL    HW222524   3.481   1.364   0.688
 6244SOL     OW22525   3.252   0.575   0.078
 6244SOL    HW122526   3.198   0.554   0.159
 6244SOL    HW222527   3.343   0.534   0.087
 6245SOL     OW22528   3.616   1.223   1.588
 6245SOL    HW122529   3.707   1.184   1.575
 6245SOL    HW222530   3.624   1.319   1.612
 6246SOL     OW22531   2.926   1.347   1.340
 6246SOL    HW122532   2.846   1.324   1.395
 6246SOL    HW222533   3.009   1.321   1.389
 6247SOL     OW22534   3.454   1.629   1.625
 6247SOL    HW122535   3.481   1.663   1.535
 6247SOL    HW222536   3.533   1.591   1.671
 6248SOL     OW22537   2.973   1.195   1.100
 6248SOL    HW122538   2.933   1.239   1.181
 6248SOL    HW222539   2.932   1.232   1.017
 6249SOL     OW22540   3.500   1.099   1.079
 6249SOL    HW122541   3.505   1.180   1.138
 6249SOL    HW222542   3.414   1.101   1.028
 6250SOL     OW22543   2.777   0.089   1.402
 6250SOL    HW122544   2.802   0.069   1.307
 6250SOL    HW222545   2.849   0.145   1.444
 6251SOL     OW22546   2.842   1.116   1.719
 6251SOL    HW122547   2.743   1.122   1.729
 6251SOL    HW222548   2.865   1.036   1.663
 6252SOL     OW22549   2.567   1.050   0.368
 6252SOL    HW122550   2.553   1.057   0.467
 6252SOL    HW222551   2.651   0.999   0.350
 6253SOL     OW22552   3.136   0.386   1.262
 6253SOL    HW122553   3.157   0.460   1.326
 6253SOL    HW222554   3.047   0.403   1.219
 6254SOL     OW22555   1.926   1.564   1.331
 6254SOL    HW122556   1.880   1.646   1.297
 6254SOL    HW222557   2.024   1.583   1.340
 6255SOL     OW22558   2.229   1.100   0.501
 6255SOL    HW122559   2.222   1.183   0.445
 6255SOL    HW222560   2.233   1.020   0.441
 6256SOL     OW22561   2.428   0.537   0.865
 6256SOL    HW122562   2.440   0.603   0.791
 6256SOL    HW222563   2.474   0.571   0.948
 6257SOL     OW22564   3.114   1.348   0.388
 6257SOL    HW122565   3.164   1.425   0.428
 6257SOL    HW222566   3.019   1.350   0.420
 6258SOL     OW22567   3.134   1.445   1.142
 6258SOL    HW122568   3.181   1.458   1.229
 6258SOL    HW222569   3.068   1.371   1.151
 6259SOL     OW22570   3.444   0.639   0.472
 6259SOL    HW122571   3.413   0.700   0.545
 6259SOL    HW222572   3.494   0.691   0.403
 6260SOL     OW22573   2.216   1.510   1.329
 6260SOL    HW122574   2.195   1.466   1.242
 6260SOL    HW222575   2.313   1.536   1.332
 6261SOL     OW22576   3.449   0.779   1.670
 6261SOL    HW122577   3.357   0.817   1.665
 6261SOL    HW222578   3.509   0.826   1.605
 6262SOL     OW22579   2.875   0.105   1.770
 6262SOL    HW122580   2.881   0.190   1.718
 6262SOL    HW222581   2.907   0.029   1.713
 6263SOL     OW22582   2.366   0.050   1.740
 6263SOL    HW122583   2.324  -0.007   1.670
 6263SOL    HW222584   2.300   0.119   1.772
 6264SOL     OW22585   2.435   0.870   1.029
 6264SOL    HW122586   2.479   0.959   1.020
 6264SOL    HW222587   2.372   0.870   1.106
 6265SOL     OW22588   3.222   0.862   1.045
 6265SOL    HW122589   3.147   0.862   0.979
 6265SOL    HW222590   3.259   0.770   1.054
 6266SOL     OW22591   3.071   0.525   0.275
 6266SOL    HW122592   3.084   0.441   0.329
 6266SOL    HW222593   3.042   0.599   0.335
 6267SOL     OW22594   2.169   0.213   1.231
 6267SOL    HW122595   2.146   0.250   1.321
 6267SOL    HW222596   2.139   0.118   1.225
 6268SOL     OW22597   1.899   1.310   1.282
 6268SOL    HW122598   1.952   1.261   1.350
 6268SOL    HW222599   1.921   1.408   1.287
 6269SOL     OW22600   2.594   0.634   1.064
 6269SOL    HW122601   2.653   0.608   0.988
 6269SOL    HW222602   2.566   0.730   1.053
 6270SOL     OW22603   3.590   0.935   1.854
 6270SOL    HW122604   3.544   0.928   1.765
 6270SOL    HW222605   3.528   0.979   1.920
 6271SOL     OW22606   2.169   0.063   0.618
 6271SOL    HW122607   2.158   0.157   0.651
 6271SOL    HW222608   2.164   0.000   0.695
 6272SOL     OW22609   3.484   0.367   0.374
 6272SOL    HW122610   3.486   0.291   0.438
 6272SOL    HW222611   3.436   0.444   0.414
 6273SOL     OW22612   2.885   0.766   0.966
 6273SOL    HW122613   2.900   0.787   1.062
 6273SOL    HW222614   2.855   0.671   0.957
 6274SOL     OW22615   2.842   1.573   1.700
 6274SOL    HW122616   2.822   1.617   1.612
 6274SOL    HW222617   2.881   1.482   1.684
 6275SOL     OW22618   3.402   0.274   0.125
 6275SOL    HW122619   3.341   0.199   0.148
 6275SOL    HW222620   3.424   0.326   0.208
 6276SOL     OW22621   3.165   0.838   0.042
 6276SOL    HW122622   3.199   0.745   0.057
 6276SOL    HW222623   3.183   0.865  -0.053
 6277SOL     OW22624   2.930   1.333   0.849
 6277SOL    HW122625   2.937   1.249   0.794
 6277SOL    HW222626   2.992   1.402   0.813
 6278SOL     OW22627   2.181   0.810   0.949
 6278SOL    HW122628   2.274   0.846   0.954
 6278SOL    HW222629   2.175   0.725   1.001
 6279SOL     OW22630   2.201   0.509   1.006
 6279SOL    HW122631   2.149   0.426   0.989
 6279SOL    HW222632   2.278   0.514   0.942
 6280SOL     OW22633   3.000   0.380   1.678
 6280SOL    HW122634   2.955   0.443   1.742
 6280SOL    HW222635   3.093   0.411   1.661
 6281SOL     OW22636   3.022   0.207   1.477
 6281SOL    HW122637   3.022   0.271   1.554
 6281SOL    HW222638   3.050   0.255   1.394
 6282SOL     OW22639   1.950   1.801   0.927
 6282SOL    HW122640   1.908   1.715   0.900
 6282SOL    HW222641   2.044   1.804   0.893
 6283SOL     OW22642   2.366   1.568   0.910
 6283SOL    HW122643   2.432   1.642   0.919
 6283SOL    HW222644   2.410   1.489   0.868
 6284SOL     OW22645   2.864   0.796   1.238
 6284SOL    HW122646   2.905   0.764   1.324
 6284SOL    HW222647   2.768   0.769   1.235
 6285SOL     OW22648   1.902   0.544   1.114
 6285SOL    HW122649   1.987   0.511   1.073
 6285SOL    HW222650   1.915   0.559   1.212
 6286SOL     OW22651   2.051   0.520   1.722
 6286SOL    HW122652   2.110   0.480   1.652
 6286SOL    HW222653   1.993   0.591   1.681
 6287SOL     OW22654   3.519   0.604   1.206
 6287SOL    HW122655   3.481   0.535   1.268
 6287SOL    HW222656   3.601   0.568   1.162
 6288SOL     OW22657   2.533   0.464   1.269
 6288SOL    HW122658   2.499   0.375   1.239
 6288SOL    HW222659   2.559   0.518   1.189
 6289SOL     OW22660   2.792   1.678   1.465
 6289SOL    HW122661   2.768   1.660   1.370
 6289SOL    HW222662   2.822   1.772   1.475
 6290SOL     OW22663   2.021   1.137   1.466
 6290SOL    HW122664   2.043   1.076   1.542
 6290SOL    HW222665   2.031   1.088   1.380
 6291SOL     OW22666   3.209   1.059   1.234
 6291SOL    HW122667   3.233   0.996   1.160
 6291SOL    HW222668   3.119   1.099   1.216
 6292SOL     OW22669   3.164   0.855   0.309
 6292SOL    HW122670   3.078   0.824   0.351
 6292SOL    HW222671   3.160   0.841   0.210
 6293SOL     OW22672   3.621   1.747   1.154
 6293SOL    HW122673   3.682   1.777   1.081
 6293SOL    HW222674   3.583   1.658   1.132
 6294SOL     OW22675   3.114   1.731   1.128
 6294SOL    HW122676   3.198   1.736   1.074
 6294SOL    HW222677   3.091   1.635   1.146
 6295SOL     OW22678   1.945   1.258   1.022
 6295SOL    HW122679   1.940   1.257   1.122
 6295SOL    HW222680   1.862   1.217   0.984
 6296SOL     OW22681   2.550   1.662   1.716
 6296SOL    HW122682   2.494   1.743   1.725
 6296SOL    HW222683   2.602   1.666   1.630
 6297SOL     OW22684   2.765   0.086   0.133
 6297SOL    HW122685   2.816   0.087   0.047
 6297SOL    HW222686   2.821   0.044   0.204
 6298SOL     OW22687   3.588   0.135   0.523
 6298SOL    HW122688   3.661   0.118   0.456
 6298SOL    HW222689   3.557   0.048   0.561
 6299SOL     OW22690   3.250   1.573   0.477
 6299SOL    HW122691   3.317   1.585   0.403
 6299SOL    HW222692   3.210   1.662   0.500
 6300SOL     OW22693   1.992   1.794   1.851
 6300SOL    HW122694   1.951   1.720   1.904
 6300SOL    HW222695   2.056   1.845   1.909
 6301SOL     OW22696   3.142   0.927   0.672
 6301SOL    HW122697   3.202   0.846   0.674
 6301SOL    HW222698   3.182   0.996   0.612
 6302SOL     OW22699   2.692   1.273   1.422
 6302SOL    HW122700   2.687   1.306   1.517
 6302SOL    HW222701   2.606   1.292   1.376
 6303SOL     OW22702   2.534   1.616   0.154
 6303SOL    HW122703   2.543   1.626   0.055
 6303SOL    HW222704   2.494   1.527   0.175
 6304SOL     OW22705   3.512   1.720   1.394
 6304SOL    HW122706   3.565   1.730   1.310
 6304SOL    HW222707   3.485   1.810   1.428
 6305SOL     OW22708   3.703   0.175   0.963
 6305SOL    HW122709   3.742   0.090   0.927
 6305SOL    HW222710   3.605   0.177   0.944
 6306SOL     OW22711   2.125   0.326   0.720
 6306SOL    HW122712   2.046   0.377   0.686
 6306SOL    HW222713   2.116   0.311   0.818
 6307SOL     OW22714   3.056   1.612   0.031
 6307SOL    HW122715   3.062   1.519   0.068
 6307SOL    HW222716   2.997   1.612  -0.049
 6308SOL     OW22717   2.684   1.002   1.372
 6308SOL    HW122718   2.724   1.001   1.280
 6308SOL    HW222719   2.694   1.094   1.412
 6309SOL     OW22720   2.778   0.910   0.291
 6309SOL    HW122721   2.841   0.948   0.223
 6309SOL    HW222722   2.818   0.827   0.330
 6310SOL     OW22723   3.366   1.607   0.044
 6310SOL    HW122724   3.274   1.644   0.051
 6310SOL    HW222725   3.404   1.627  -0.046
 6311SOL     OW22726   3.476   1.292   1.289
 6311SOL    HW122727   3.536   1.295   1.369
 6311SOL    HW222728   3.401   1.356   1.302
 6312SOL     OW22729   2.901   1.098   0.696
 6312SOL    HW122730   2.831   1.051   0.750
 6312SOL    HW222731   2.960   1.030   0.653
 6313SOL     OW22732   2.876   0.236   0.971
 6313SOL    HW122733   2.868   0.200   0.878
 6313SOL    HW222734   2.874   0.160   1.036
 6314SOL     OW22735   2.452   1.487   0.491
 6314SOL    HW122736   2.494   1.429   0.421
 6314SOL    HW222737   2.408   1.566   0.447
 6315SOL     OW22738   3.571   0.385   1.381
 6315SOL    HW122739   3.644   0.454   1.385
 6315SOL    HW222740   3.599   0.310   1.322
 6316SOL     OW22741   2.534   0.203   1.489
 6316SOL    HW122742   2.624   0.187   1.449
 6316SOL    HW222743   2.542   0.208   1.588
 6317SOL     OW22744   1.937   0.345   0.033
 6317SOL    HW122745   1.845   0.317   0.004
 6317SOL    HW222746   1.968   0.422  -0.023
 6318SOL     OW22747   3.302   0.856   1.398
 6318SOL    HW122748   3.245   0.908   1.335
 6318SOL    HW222749   3.398   0.868   1.374
 6319SOL     OW22750   3.045   1.335   0.119
 6319SOL    HW122751   2.946   1.324   0.121
 6319SOL    HW222752   3.079   1.350   0.212
 6320SOL     OW22753   3.355   1.767   0.959
 6320SOL    HW122754   3.388   1.831   0.890
 6320SOL    HW222755   3.421   1.761   1.034
 6321SOL     OW22756   3.536   0.883   1.254
 6321SOL    HW122757   3.509   0.794   1.217
 6321SOL    HW222758   3.537   0.951   1.181
 6322SOL     OW22759   3.087   0.325   0.449
 6322SOL    HW122760   3.152   0.251   0.438
 6322SOL    HW222761   3.107   0.375   0.533
 6323SOL     OW22762   2.456   0.745   0.652
 6323SOL    HW122763   2.506   0.830   0.633
 6323SOL    HW222764   2.368   0.747   0.604
 6324SOL     OW22765   3.639   0.342   1.642
 6324SOL    HW122766   3.622   0.373   1.548
 6324SOL    HW222767   3.555   0.305   1.680
 6325SOL     OW22768   3.592   0.934   1.517
 6325SOL    HW122769   3.630   1.025   1.532
 6325SOL    HW222770   3.584   0.917   1.418
 6326SOL     OW22771   2.721   1.374   0.016
 6326SOL    HW122772   2.675   1.389   0.104
 6326SOL    HW222773   2.765   1.459  -0.014
 6327SOL     OW22774   2.523   1.790   0.953
 6327SOL    HW122775   2.477   1.878   0.940
 6327SOL    HW222776   2.622   1.802   0.946
 6328SOL     OW22777   2.721   0.956   0.861
 6328SOL    HW122778   2.775   0.887   0.909
 6328SOL    HW222779   2.689   1.025   0.927
 6329SOL     OW22780   2.945   0.984   0.087
 6329SOL    HW122781   2.922   1.037   0.005
 6329SOL    HW222782   3.026   0.928   0.068
 6330SOL     OW22783   3.723   1.569   0.851
 6330SOL    HW122784   3.652   1.557   0.781
 6330SOL    HW222785   3.724   1.490   0.911
 6331SOL     OW22786   1.941   1.240   0.653
 6331SOL    HW122787   1.940   1.193   0.741
 6331SOL    HW222788   2.023   1.212   0.602
 6332SOL     OW22789   3.686   0.192   1.227
 6332SOL    HW122790   3.682   0.102   1.271
 6332SOL    HW222791   3.689   0.181   1.128
 6333SOL     OW22792   3.567   1.487   1.104
 6333SOL    HW122793   3.474   1.462   1.077
 6333SOL    HW222794   3.593   1.437   1.186
 6334SOL     OW22795   2.674   1.586   0.687
 6334SOL    HW122796   2.706   1.596   0.593
 6334SOL    HW222797   2.595   1.524   0.689
 6335SOL     OW22798   3.286   0.214   1.112
 6335SOL    HW122799   3.338   0.149   1.167
 6335SOL    HW222800   3.237   0.277   1.173
 6336SOL     OW22801   2.863   0.034   1.154
 6336SOL    HW122802   2.800  -0.038   1.123
 6336SOL    HW222803   2.956  -0.002   1.154
 6337SOL     OW22804   2.632   1.330   0.301
 6337SOL    HW122805   2.586   1.243   0.318
 6337SOL    HW222806   2.723   1.327   0.342
 6338SOL     OW22807   2.480   1.567   1.284
 6338SOL    HW122808   2.475   1.649   1.341
 6338SOL    HW222809   2.569   1.564   1.239
 6339SOL     OW22810   3.214   0.052   0.168
 6339SOL    HW122811   3.249   0.011   0.084
 6339SOL    HW222812   3.124   0.014   0.188
 6340SOL     OW22813   3.162   0.453   0.691
 6340SOL    HW122814   3.103   0.533   0.695
 6340SOL    HW222815   3.177   0.418   0.784
 6341SOL     OW22816   3.455   0.221   0.882
 6341SOL    HW122817   3.371   0.220   0.936
 6341SOL    HW222818   3.457   0.304   0.826
 6342SOL     OW22819   1.901   1.077   0.300
 6342SOL    HW122820   2.000   1.066   0.291
 6342SOL    HW222821   1.861   0.991   0.332
 6343SOL     OW22822   2.737   1.646   0.337
 6343SOL    HW122823   2.660   1.611   0.283
 6343SOL    HW222824   2.705   1.717   0.399
 6344SOL     OW22825   2.092   0.628   1.975
 6344SOL    HW122826   1.999   0.626   2.012
 6344SOL    HW222827   2.093   0.589   1.883
 6345SOL     OW22828   2.087   0.275   2.858
 6345SOL    HW122829   2.122   0.258   2.950
 6345SOL    HW222830   1.999   0.230   2.846
 6346SOL     OW22831   1.881   0.368   2.509
 6346SOL    HW122832   1.799   0.411   2.548
 6346SOL    HW222833   1.853   0.295   2.446
 6347SOL     OW22834   2.431   1.275   3.027
 6347SOL    HW122835   2.338   1.268   2.990
 6347SOL    HW222836   2.442   1.364   3.071
 6348SOL     OW22837   3.417   1.511   2.565
 6348SOL    HW122838   3.360   1.495   2.646
 6348SOL    HW222839   3.358   1.521   2.485
 6349SOL     OW22840   2.997   0.703   2.579
 6349SOL    HW122841   3.054   0.781   2.554
 6349SOL    HW222842   2.937   0.729   2.655
 6350SOL     OW22843   3.617   0.607   2.093
 6350SOL    HW122844   3.605   0.594   1.994
 6350SOL    HW222845   3.587   0.526   2.142
 6351SOL     OW22846   2.630   1.144   2.885
 6351SOL    HW122847   2.552   1.161   2.945
 6351SOL    HW222848   2.664   1.231   2.849
 6352SOL     OW22849   2.712   0.798   3.685
 6352SOL    HW122850   2.708   0.874   3.750
 6352SOL    HW222851   2.734   0.834   3.594
 6353SOL     OW22852   2.547   1.012   2.527
 6353SOL    HW122853   2.616   0.996   2.597
 6353SOL    HW222854   2.474   1.069   2.565
 6354SOL     OW22855   2.548   1.161   3.665
 6354SOL    HW122856   2.608   1.240   3.679
 6354SOL    HW222857   2.462   1.192   3.624
 6355SOL     OW22858   2.197   1.435   2.923
 6355SOL    HW122859   2.119   1.404   2.870
 6355SOL    HW222860   2.255   1.493   2.866
 6356SOL     OW22861   2.300   0.392   3.361
 6356SOL    HW122862   2.382   0.336   3.370
 6356SOL    HW222863   2.219   0.334   3.365
 6357SOL     OW22864   2.093   1.713   2.345
 6357SOL    HW122865   2.127   1.790   2.399
 6357SOL    HW222866   2.137   1.713   2.255
 6358SOL     OW22867   2.989   1.341   3.552
 6358SOL    HW122868   3.036   1.341   3.640
 6358SOL    HW222869   2.941   1.254   3.541
 6359SOL     OW22870   2.092   1.434   2.400
 6359SOL    HW122871   2.066   1.530   2.400
 6359SOL    HW222872   2.021   1.380   2.445
 6360SOL     OW22873   2.102   1.091   2.748
 6360SOL    HW122874   2.116   1.007   2.800
 6360SOL    HW222875   2.047   1.155   2.803
 6361SOL     OW22876   2.482   1.786   3.301
 6361SOL    HW122877   2.390   1.769   3.336
 6361SOL    HW222878   2.510   1.878   3.327
 6362SOL     OW22879   2.468   0.964   1.985
 6362SOL    HW122880   2.475   1.048   1.931
 6362SOL    HW222881   2.514   0.977   2.073
 6363SOL     OW22882   3.456   0.114   3.342
 6363SOL    HW122883   3.438   0.181   3.270
 6363SOL    HW222884   3.453   0.160   3.431
 6364SOL     OW22885   1.984   0.643   2.425
 6364SOL    HW122886   1.939   0.555   2.442
 6364SOL    HW222887   1.983   0.697   2.509
 6365SOL     OW22888   3.704   1.767   2.221
 6365SOL    HW122889   3.758   1.738   2.301
 6365SOL    HW222890   3.734   1.857   2.192
 6366SOL     OW22891   1.889   1.596   1.979
 6366SOL    HW122892   1.870   1.500   2.000
 6366SOL    HW222893   1.856   1.654   2.054
 6367SOL     OW22894   3.551   0.922   2.474
 6367SOL    HW122895   3.646   0.893   2.482
 6367SOL    HW222896   3.543   0.987   2.399
 6368SOL     OW22897   3.503   1.108   2.294
 6368SOL    HW122898   3.589   1.110   2.242
 6368SOL    HW222899   3.517   1.155   2.382
 6369SOL     OW22900   1.975   0.737   3.459
 6369SOL    HW122901   2.063   0.724   3.504
 6369SOL    HW222902   1.962   0.834   3.437
 6370SOL     OW22903   2.475   1.365   2.588
 6370SOL    HW122904   2.426   1.278   2.597
 6370SOL    HW222905   2.452   1.408   2.501
 6371SOL     OW22906   3.155   1.228   3.285
 6371SOL    HW122907   3.192   1.155   3.227
 6371SOL    HW222908   3.207   1.233   3.370
 6372SOL     OW22909   2.671   0.004   2.364
 6372SOL    HW122910   2.711   0.095   2.355
 6372SOL    HW222911   2.571   0.012   2.370
 6373SOL     OW22912   2.059   0.976   3.126
 6373SOL    HW122913   2.148   0.931   3.112
 6373SOL    HW222914   1.986   0.911   3.107
 6374SOL     OW22915   3.049   1.792   3.478
 6374SOL    HW122916   3.073   1.852   3.402
 6374SOL    HW222917   3.056   1.697   3.448
 6375SOL     OW22918   2.179   0.251   3.663
 6375SOL    HW122919   2.250   0.322   3.669
 6375SOL    HW222920   2.091   0.290   3.691
 6376SOL     OW22921   3.328   1.417   2.815
 6376SOL    HW122922   3.269   1.423   2.895
 6376SOL    HW222923   3.313   1.329   2.769
 6377SOL     OW22924   3.529   1.714   2.434
 6377SOL    HW122925   3.488   1.691   2.346
 6377SOL    HW222926   3.511   1.640   2.499
 6378SOL     OW22927   2.460   0.729   2.132
 6378SOL    HW122928   2.484   0.798   2.064
 6378SOL    HW222929   2.382   0.762   2.186
 6379SOL     OW22930   3.143   0.345   2.806
 6379SOL    HW122931   3.057   0.295   2.793
 6379SOL    HW222932   3.205   0.291   2.862
 6380SOL     OW22933   3.438   1.662   2.169
 6380SOL    HW122934   3.527   1.708   2.172
 6380SOL    HW222935   3.417   1.638   2.074
 6381SOL     OW22936   2.669   0.605   3.327
 6381SOL    HW122937   2.622   0.602   3.416
 6381SOL    HW222938   2.618   0.550   3.261
 6382SOL     OW22939   3.256   0.469   3.536
 6382SOL    HW122940   3.236   0.512   3.624
 6382SOL    HW222941   3.334   0.407   3.545
 6383SOL     OW22942   2.835   0.890   3.434
 6383SOL    HW122943   2.881   0.806   3.405
 6383SOL    HW222944   2.779   0.924   3.359
 6384SOL     OW22945   2.853   0.410   3.104
 6384SOL    HW122946   2.776   0.444   3.158
 6384SOL    HW222947   2.819   0.359   3.025
 6385SOL     OW22948   2.903   0.701   2.291
 6385SOL    HW122949   2.929   0.697   2.387
 6385SOL    HW222950   2.818   0.650   2.277
 6386SOL     OW22951   1.938   0.811   2.651
 6386SOL    HW122952   2.037   0.799   2.660
 6386SOL    HW222953   1.914   0.906   2.672
 6387SOL     OW22954   1.992   1.821   3.433
 6387SOL    HW122955   1.982   1.806   3.532
 6387SOL    HW222956   1.906   1.857   3.397
 6388SOL     OW22957   2.727   0.348   2.057
 6388SOL    HW122958   2.786   0.411   2.008
 6388SOL    HW222959   2.746   0.254   2.028
 6389SOL     OW22960   3.581   0.585   3.693
 6389SOL    HW122961   3.555   0.674   3.657
 6389SOL    HW222962   3.579   0.517   3.620
 6390SOL     OW22963   3.224   1.144   2.407
 6390SOL    HW122964   3.307   1.115   2.359
 6390SOL    HW222965   3.175   1.211   2.351
 6391SOL     OW22966   2.412   0.196   2.747
 6391SOL    HW122967   2.407   0.191   2.847
 6391SOL    HW222968   2.414   0.292   2.718
 6392SOL     OW22969   2.870   1.456   2.339
 6392SOL    HW122970   2.824   1.528   2.287
 6392SOL    HW222971   2.866   1.476   2.437
 6393SOL     OW22972   2.213   1.801   2.715
 6393SOL    HW122973   2.263   1.715   2.721
 6393SOL    HW222974   2.278   1.878   2.712
 6394SOL     OW22975   3.657   1.066   2.735
 6394SOL    HW122976   3.595   1.051   2.659
 6394SOL    HW222977   3.605   1.077   2.820
 6395SOL     OW22978   3.089   1.550   3.368
 6395SOL    HW122979   3.095   1.473   3.432
 6395SOL    HW222980   3.037   1.524   3.288
 6396SOL     OW22981   2.183   0.943   2.104
 6396SOL    HW122982   2.265   0.982   2.062
 6396SOL    HW222983   2.156   0.861   2.055
 6397SOL     OW22984   2.323   1.266   3.589
 6397SOL    HW122985   2.273   1.267   3.503
 6397SOL    HW222986   2.260   1.248   3.665
 6398SOL     OW22987   2.973   1.776   2.099
 6398SOL    HW122988   2.913   1.714   2.149
 6398SOL    HW222989   3.004   1.732   2.014
 6399SOL     OW22990   2.064   0.285   3.360
 6399SOL    HW122991   1.984   0.345   3.347
 6399SOL    HW222992   2.054   0.236   3.446
 6400SOL     OW22993   2.326   1.743   2.185
 6400SOL    HW122994   2.359   1.782   2.271
 6400SOL    HW222995   2.402   1.736   2.120
 6401SOL     OW22996   3.262   0.107   2.288
 6401SOL    HW122997   3.238   0.070   2.198
 6401SOL    HW222998   3.361   0.123   2.292
 6402SOL     OW22999   2.111   1.785   3.103
 6402SOL    HW123000   2.168   1.720   3.153
 6402SOL    HW223001   2.095   1.752   3.010
 6403SOL     OW23002   2.802   1.698   2.766
 6403SOL    HW123003   2.882   1.641   2.787
 6403SOL    HW223004   2.753   1.658   2.689
 6404SOL     OW23005   2.244   0.700   2.342
 6404SOL    HW123006   2.289   0.610   2.339
 6404SOL    HW223007   2.150   0.689   2.375
 6405SOL     OW23008   3.409   0.222   3.591
 6405SOL    HW123009   3.404   0.259   3.683
 6405SOL    HW223010   3.337   0.153   3.579
 6406SOL     OW23011   2.476   0.122   1.979
 6406SOL    HW123012   2.574   0.100   1.986
 6406SOL    HW223013   2.445   0.105   1.886
 6407SOL     OW23014   2.643   0.264   3.611
 6407SOL    HW123015   2.710   0.203   3.654
 6407SOL    HW223016   2.570   0.283   3.676
 6408SOL     OW23017   2.750   1.514   3.057
 6408SOL    HW123018   2.727   1.489   2.963
 6408SOL    HW223019   2.811   1.445   3.096
 6409SOL     OW23020   3.213   0.590   3.295
 6409SOL    HW123021   3.241   0.547   3.380
 6409SOL    HW223022   3.238   0.686   3.296
 6410SOL     OW23023   2.665   1.402   2.786
 6410SOL    HW123024   2.755   1.416   2.744
 6410SOL    HW223025   2.594   1.404   2.715
 6411SOL     OW23026   2.784   0.503   2.761
 6411SOL    HW123027   2.759   0.494   2.665
 6411SOL    HW223028   2.832   0.421   2.792
 6412SOL     OW23029   2.401   0.064   2.374
 6412SOL    HW123030   2.320   0.065   2.432
 6412SOL    HW223031   2.404   0.147   2.319
 6413SOL     OW23032   2.159   0.035   2.033
 6413SOL    HW123033   2.208   0.119   2.012
 6413SOL    HW223034   2.221  -0.030   2.078
 6414SOL     OW23035   2.797   0.236   2.342
 6414SOL    HW123036   2.749   0.277   2.264
 6414SOL    HW223037   2.896   0.234   2.323
 6415SOL     OW23038   2.938   0.683   3.326
 6415SOL    HW123039   2.858   0.622   3.329
 6415SOL    HW223040   3.019   0.630   3.302
 6416SOL     OW23041   3.089   1.570   2.655
 6416SOL    HW123042   3.110   1.644   2.590
 6416SOL    HW223043   3.157   1.570   2.728
 6417SOL     OW23044   2.321   1.152   2.603
 6417SOL    HW123045   2.250   1.125   2.668
 6417SOL    HW223046   2.295   1.124   2.510
 6418SOL     OW23047   3.133   1.797   2.453
 6418SOL    HW123048   3.177   1.861   2.389
 6418SOL    HW223049   3.083   1.849   2.523
 6419SOL     OW23050   2.894   0.549   1.878
 6419SOL    HW123051   2.853   0.631   1.839
 6419SOL    HW223052   2.958   0.575   1.951
 6420SOL     OW23053   1.940   0.556   3.248
 6420SOL    HW123054   2.032   0.555   3.207
 6420SOL    HW223055   1.934   0.630   3.315
 6421SOL     OW23056   2.423   0.222   3.009
 6421SOL    HW123057   2.461   0.138   3.046
 6421SOL    HW223058   2.335   0.241   3.053
 6422SOL     OW23059   2.728   0.454   2.504
 6422SOL    HW123060   2.696   0.526   2.442
 6422SOL    HW223061   2.752   0.373   2.451
 6423SOL     OW23062   2.879   0.039   2.615
 6423SOL    HW123063   2.807   0.044   2.546
 6423SOL    HW223064   2.855  -0.030   2.684
 6424SOL     OW23065   3.291   1.173   2.729
 6424SOL    HW123066   3.236   1.089   2.722
 6424SOL    HW223067   3.317   1.202   2.637
 6425SOL     OW23068   3.328   0.590   2.854
 6425SOL    HW123069   3.298   0.495   2.861
 6425SOL    HW223070   3.401   0.606   2.920
 6426SOL     OW23071   3.719   0.833   2.239
 6426SOL    HW123072   3.761   0.769   2.303
 6426SOL    HW223073   3.681   0.782   2.161
 6427SOL     OW23074   3.526   1.280   2.519
 6427SOL    HW123075   3.625   1.288   2.533
 6427SOL    HW223076   3.481   1.364   2.550
 6428SOL     OW23077   3.252   0.575   1.940
 6428SOL    HW123078   3.198   0.554   2.021
 6428SOL    HW223079   3.343   0.534   1.949
 6429SOL     OW23080   2.389   0.256   2.190
 6429SOL    HW123081   2.416   0.197   2.115
 6429SOL    HW223082   2.389   0.351   2.159
 6430SOL     OW23083   3.616   1.223   3.450
 6430SOL    HW123084   3.707   1.184   3.437
 6430SOL    HW223085   3.624   1.319   3.474
 6431SOL     OW23086   2.926   1.347   3.202
 6431SOL    HW123087   2.846   1.324   3.257
 6431SOL    HW223088   3.009   1.321   3.251
 6432SOL     OW23089   3.454   1.629   3.487
 6432SOL    HW123090   3.481   1.663   3.397
 6432SOL    HW223091   3.533   1.591   3.533
 6433SOL     OW23092   2.973   1.195   2.962
 6433SOL    HW123093   2.933   1.239   3.043
 6433SOL    HW223094   2.932   1.232   2.879
 6434SOL     OW23095   3.500   1.099   2.941
 6434SOL    HW123096   3.505   1.180   3.000
 6434SOL    HW223097   3.414   1.101   2.890
 6435SOL     OW23098   2.777   0.089   3.264
 6435SOL    HW123099   2.802   0.069   3.169
 6435SOL    HW223100   2.849   0.145   3.306
 6436SOL     OW23101   2.842   1.116   3.581
 6436SOL    HW123102   2.743   1.122   3.591
 6436SOL    HW223103   2.865   1.036   3.525
 6437SOL     OW23104   2.567   1.050   2.230
 6437SOL    HW123105   2.553   1.057   2.329
 6437SOL    HW223106   2.651   0.999   2.212
 6438SOL     OW23107   2.272   0.813   3.113
 6438SOL    HW123108   2.358   0.825   3.163
 6438SOL    HW223109   2.230   0.726   3.140
 6439SOL     OW23110   3.136   0.386   3.124
 6439SOL    HW123111   3.157   0.460   3.188
 6439SOL    HW223112   3.047   0.403   3.081
 6440SOL     OW23113   1.926   1.564   3.193
 6440SOL    HW123114   1.880   1.646   3.159
 6440SOL    HW223115   2.024   1.583   3.202
 6441SOL     OW23116   2.229   1.100   2.363
 6441SOL    HW123117   2.222   1.183   2.307
 6441SOL    HW223118   2.233   1.020   2.303
 6442SOL     OW23119   2.428   0.537   2.727
 6442SOL    HW123120   2.440   0.603   2.653
 6442SOL    HW223121   2.474   0.571   2.810
 6443SOL     OW23122   3.114   1.348   2.250
 6443SOL    HW123123   3.164   1.425   2.290
 6443SOL    HW223124   3.019   1.350   2.282
 6444SOL     OW23125   3.134   1.445   3.004
 6444SOL    HW123126   3.181   1.458   3.091
 6444SOL    HW223127   3.068   1.371   3.013
 6445SOL     OW23128   2.216   1.510   3.191
 6445SOL    HW123129   2.195   1.466   3.104
 6445SOL    HW223130   2.313   1.536   3.194
 6446SOL     OW23131   2.264   0.751   3.460
 6446SOL    HW123132   2.332   0.806   3.413
 6446SOL    HW223133   2.304   0.663   3.487
 6447SOL     OW23134   3.449   0.779   3.532
 6447SOL    HW123135   3.357   0.817   3.527
 6447SOL    HW223136   3.509   0.826   3.467
 6448SOL     OW23137   2.875   0.105   3.632
 6448SOL    HW123138   2.881   0.190   3.580
 6448SOL    HW223139   2.907   0.029   3.575
 6449SOL     OW23140   2.366   0.050   3.602
 6449SOL    HW123141   2.324  -0.007   3.532
 6449SOL    HW223142   2.300   0.119   3.634
 6450SOL     OW23143   2.435   0.870   2.891
 6450SOL    HW123144   2.479   0.959   2.882
 6450SOL    HW223145   2.372   0.870   2.968
 6451SOL     OW23146   3.222   0.862   2.907
 6451SOL    HW123147   3.147   0.862   2.841
 6451SOL    HW223148   3.259   0.770   2.916
 6452SOL     OW23149   2.169   0.213   3.093
 6452SOL    HW123150   2.146   0.250   3.183
 6452SOL    HW223151   2.139   0.118   3.087
 6453SOL     OW23152   1.899   1.310   3.144
 6453SOL    HW123153   1.952   1.261   3.212
 6453SOL    HW223154   1.921   1.408   3.149
 6454SOL     OW23155   2.594   0.634   2.926
 6454SOL    HW123156   2.653   0.608   2.850
 6454SOL    HW223157   2.566   0.730   2.915
 6455SOL     OW23158   3.590   0.935   3.716
 6455SOL    HW123159   3.544   0.928   3.627
 6455SOL    HW223160   3.528   0.979   3.782
 6456SOL     OW23161   2.169   0.063   2.480
 6456SOL    HW123162   2.158   0.157   2.513
 6456SOL    HW223163   2.164   0.000   2.557
 6457SOL     OW23164   2.885   0.766   2.828
 6457SOL    HW123165   2.900   0.787   2.924
 6457SOL    HW223166   2.855   0.671   2.819
 6458SOL     OW23167   2.842   1.573   3.562
 6458SOL    HW123168   2.822   1.617   3.474
 6458SOL    HW223169   2.881   1.482   3.546
 6459SOL     OW23170   3.721   1.518   3.467
 6459SOL    HW123171   3.735   1.545   3.372
 6459SOL    HW223172   3.804   1.540   3.520
 6460SOL     OW23173   2.212   0.898   3.666
 6460SOL    HW123174   2.288   0.942   3.714
 6460SOL    HW223175   2.247   0.851   3.584
 6461SOL     OW23176   3.402   0.274   1.987
 6461SOL    HW123177   3.341   0.199   2.010
 6461SOL    HW223178   3.424   0.326   2.070
 6462SOL     OW23179   3.165   0.838   1.904
 6462SOL    HW123180   3.199   0.745   1.919
 6462SOL    HW223181   3.183   0.865   1.809
 6463SOL     OW23182   2.930   1.333   2.711
 6463SOL    HW123183   2.937   1.249   2.656
 6463SOL    HW223184   2.992   1.402   2.675
 6464SOL     OW23185   2.181   0.810   2.811
 6464SOL    HW123186   2.274   0.846   2.816
 6464SOL    HW223187   2.175   0.725   2.863
 6465SOL     OW23188   2.201   0.509   2.868
 6465SOL    HW123189   2.149   0.426   2.851
 6465SOL    HW223190   2.278   0.514   2.804
 6466SOL     OW23191   3.000   0.380   3.540
 6466SOL    HW123192   2.955   0.443   3.604
 6466SOL    HW223193   3.093   0.411   3.523
 6467SOL     OW23194   3.022   0.207   3.339
 6467SOL    HW123195   3.022   0.271   3.416
 6467SOL    HW223196   3.050   0.255   3.256
 6468SOL     OW23197   1.870   1.326   2.062
 6468SOL    HW123198   1.777   1.347   2.031
 6468SOL    HW223199   1.880   1.227   2.075
 6469SOL     OW23200   1.950   1.801   2.789
 6469SOL    HW123201   1.908   1.715   2.762
 6469SOL    HW223202   2.044   1.804   2.755
 6470SOL     OW23203   2.366   1.568   2.772
 6470SOL    HW123204   2.432   1.642   2.781
 6470SOL    HW223205   2.410   1.489   2.730
 6471SOL     OW23206   2.864   0.796   3.100
 6471SOL    HW123207   2.905   0.764   3.186
 6471SOL    HW223208   2.768   0.769   3.097
 6472SOL     OW23209   1.902   0.544   2.976
 6472SOL    HW123210   1.987   0.511   2.935
 6472SOL    HW223211   1.915   0.559   3.074
 6473SOL     OW23212   2.051   0.520   3.584
 6473SOL    HW123213   2.110   0.480   3.514
 6473SOL    HW223214   1.993   0.591   3.543
 6474SOL     OW23215   3.231   0.950   3.522
 6474SOL    HW123216   3.270   1.039   3.542
 6474SOL    HW223217   3.241   0.930   3.425
 6475SOL     OW23218   2.677   0.572   2.187
 6475SOL    HW123219   2.684   0.483   2.141
 6475SOL    HW223220   2.583   0.606   2.179
 6476SOL     OW23221   3.519   0.604   3.068
 6476SOL    HW123222   3.481   0.535   3.130
 6476SOL    HW223223   3.601   0.568   3.024
 6477SOL     OW23224   2.114   1.564   3.606
 6477SOL    HW123225   2.084   1.621   3.682
 6477SOL    HW223226   2.107   1.467   3.632
 6478SOL     OW23227   2.533   0.464   3.131
 6478SOL    HW123228   2.499   0.375   3.101
 6478SOL    HW223229   2.559   0.518   3.051
 6479SOL     OW23230   2.792   1.678   3.327
 6479SOL    HW123231   2.768   1.660   3.232
 6479SOL    HW223232   2.822   1.772   3.337
 6480SOL     OW23233   2.335   0.500   2.053
 6480SOL    HW123234   2.396   0.580   2.057
 6480SOL    HW223235   2.240   0.531   2.060
 6481SOL     OW23236   2.021   1.137   3.328
 6481SOL    HW123237   2.043   1.076   3.404
 6481SOL    HW223238   2.031   1.088   3.242
 6482SOL     OW23239   3.209   1.059   3.096
 6482SOL    HW123240   3.233   0.996   3.022
 6482SOL    HW223241   3.119   1.099   3.078
 6483SOL     OW23242   3.164   0.855   2.171
 6483SOL    HW123243   3.078   0.824   2.213
 6483SOL    HW223244   3.160   0.841   2.072
 6484SOL     OW23245   3.114   1.731   2.990
 6484SOL    HW123246   3.198   1.736   2.936
 6484SOL    HW223247   3.091   1.635   3.008
 6485SOL     OW23248   1.945   1.258   2.884
 6485SOL    HW123249   1.940   1.257   2.984
 6485SOL    HW223250   1.862   1.217   2.846
 6486SOL     OW23251   2.550   1.662   3.578
 6486SOL    HW123252   2.494   1.743   3.587
 6486SOL    HW223253   2.602   1.666   3.492
 6487SOL     OW23254   3.588   0.135   2.385
 6487SOL    HW123255   3.661   0.118   2.318
 6487SOL    HW223256   3.557   0.048   2.423
 6488SOL     OW23257   3.250   1.573   2.339
 6488SOL    HW123258   3.317   1.585   2.265
 6488SOL    HW223259   3.210   1.662   2.362
 6489SOL     OW23260   1.992   1.794   3.713
 6489SOL    HW123261   1.951   1.720   3.766
 6489SOL    HW223262   2.056   1.845   3.771
 6490SOL     OW23263   3.142   0.927   2.534
 6490SOL    HW123264   3.202   0.846   2.536
 6490SOL    HW223265   3.182   0.996   2.474
 6491SOL     OW23266   2.692   1.273   3.284
 6491SOL    HW123267   2.687   1.306   3.379
 6491SOL    HW223268   2.606   1.292   3.238
 6492SOL     OW23269   2.534   1.616   2.016
 6492SOL    HW123270   2.543   1.626   1.917
 6492SOL    HW223271   2.494   1.527   2.037
 6493SOL     OW23272   3.703   0.175   2.825
 6493SOL    HW123273   3.742   0.090   2.789
 6493SOL    HW223274   3.605   0.177   2.806
 6494SOL     OW23275   2.125   0.326   2.582
 6494SOL    HW123276   2.046   0.377   2.548
 6494SOL    HW223277   2.116   0.311   2.680
 6495SOL     OW23278   3.056   1.612   1.893
 6495SOL    HW123279   3.062   1.519   1.930
 6495SOL    HW223280   2.997   1.612   1.813
 6496SOL     OW23281   2.684   1.002   3.234
 6496SOL    HW123282   2.724   1.001   3.142
 6496SOL    HW223283   2.694   1.094   3.274
 6497SOL     OW23284   2.778   0.910   2.153
 6497SOL    HW123285   2.841   0.948   2.085
 6497SOL    HW223286   2.818   0.827   2.192
 6498SOL     OW23287   2.234   1.288   3.352
 6498SOL    HW123288   2.221   1.381   3.318
 6498SOL    HW223289   2.150   1.236   3.339
 6499SOL     OW23290   3.476   1.292   3.151
 6499SOL    HW123291   3.536   1.295   3.231
 6499SOL    HW223292   3.401   1.356   3.164
 6500SOL     OW23293   2.901   1.098   2.558
 6500SOL    HW123294   2.831   1.051   2.612
 6500SOL    HW223295   2.960   1.030   2.515
 6501SOL     OW23296   2.876   0.236   2.833
 6501SOL    HW123297   2.868   0.200   2.740
 6501SOL    HW223298   2.874   0.160   2.898
 6502SOL     OW23299   2.452   1.487   2.353
 6502SOL    HW123300   2.494   1.429   2.283
 6502SOL    HW223301   2.408   1.566   2.309
 6503SOL     OW23302   3.571   0.385   3.243
 6503SOL    HW123303   3.644   0.454   3.247
 6503SOL    HW223304   3.599   0.310   3.184
 6504SOL     OW23305   2.117   1.348   2.152
 6504SOL    HW123306   2.021   1.349   2.125
 6504SOL    HW223307   2.129   1.401   2.236
 6505SOL     OW23308   1.967   1.013   3.588
 6505SOL    HW123309   1.890   0.980   3.642
 6505SOL    HW223310   2.052   0.983   3.630
 6506SOL     OW23311   2.534   0.203   3.351
 6506SOL    HW123312   2.624   0.187   3.311
 6506SOL    HW223313   2.542   0.208   3.450
 6507SOL     OW23314   1.937   0.345   1.895
 6507SOL    HW123315   1.845   0.317   1.866
 6507SOL    HW223316   1.968   0.422   1.839
 6508SOL     OW23317   3.302   0.856   3.260
 6508SOL    HW123318   3.245   0.908   3.197
 6508SOL    HW223319   3.398   0.868   3.236
 6509SOL     OW23320   1.934   0.166   2.180
 6509SOL    HW123321   1.917   0.249   2.126
 6509SOL    HW223322   2.024   0.129   2.158
 6510SOL     OW23323   3.045   1.335   1.981
 6510SOL    HW123324   2.946   1.324   1.983
 6510SOL    HW223325   3.079   1.350   2.074
 6511SOL     OW23326   2.475   0.842   3.293
 6511SOL    HW123327   2.531   0.923   3.276
 6511SOL    HW223328   2.534   0.762   3.296
 6512SOL     OW23329   2.578   0.565   3.570
 6512SOL    HW123330   2.597   0.630   3.644
 6512SOL    HW223331   2.638   0.485   3.579
 6513SOL     OW23332   3.312   1.220   3.495
 6513SOL    HW123333   3.303   1.210   3.594
 6513SOL    HW223334   3.408   1.213   3.469
 6514SOL     OW23335   2.252   1.741   3.422
 6514SOL    HW123336   2.161   1.782   3.420
 6514SOL    HW223337   2.245   1.647   3.454
 6515SOL     OW23338   3.536   0.883   3.116
 6515SOL    HW123339   3.509   0.794   3.079
 6515SOL    HW223340   3.537   0.951   3.043
 6516SOL     OW23341   2.456   0.745   2.514
 6516SOL    HW123342   2.506   0.830   2.495
 6516SOL    HW223343   2.368   0.747   2.466
 6517SOL     OW23344   3.639   0.342   3.504
 6517SOL    HW123345   3.622   0.373   3.410
 6517SOL    HW223346   3.555   0.305   3.542
 6518SOL     OW23347   3.592   0.934   3.379
 6518SOL    HW123348   3.630   1.025   3.394
 6518SOL    HW223349   3.584   0.917   3.280
 6519SOL     OW23350   2.721   1.374   1.878
 6519SOL    HW123351   2.675   1.389   1.966
 6519SOL    HW223352   2.765   1.459   1.848
 6520SOL     OW23353   2.523   1.790   2.815
 6520SOL    HW123354   2.477   1.878   2.802
 6520SOL    HW223355   2.622   1.802   2.808
 6521SOL     OW23356   2.721   0.956   2.723
 6521SOL    HW123357   2.775   0.887   2.771
 6521SOL    HW223358   2.689   1.025   2.789
 6522SOL     OW23359   2.945   0.984   1.949
 6522SOL    HW123360   2.922   1.037   1.867
 6522SOL    HW223361   3.026   0.928   1.930
 6523SOL     OW23362   3.723   1.569   2.713
 6523SOL    HW123363   3.652   1.557   2.643
 6523SOL    HW223364   3.724   1.490   2.773
 6524SOL     OW23365   2.083   1.314   3.706
 6524SOL    HW123366   2.018   1.241   3.685
 6524SOL    HW223367   2.087   1.328   3.804
 6525SOL     OW23368   1.941   1.240   2.515
 6525SOL    HW123369   1.940   1.193   2.603
 6525SOL    HW223370   2.023   1.212   2.464
 6526SOL     OW23371   2.534   1.391   3.486
 6526SOL    HW123372   2.456   1.341   3.524
 6526SOL    HW223373   2.531   1.486   3.517
 6527SOL     OW23374   3.686   0.192   3.089
 6527SOL    HW123375   3.682   0.102   3.133
 6527SOL    HW223376   3.689   0.181   2.990
 6528SOL     OW23377   2.290   0.424   2.382
 6528SOL    HW123378   2.320   0.352   2.320
 6528SOL    HW223379   2.251   0.384   2.465
 6529SOL     OW23380   2.179   0.547   3.142
 6529SOL    HW123381   2.217   0.488   3.214
 6529SOL    HW223382   2.219   0.521   3.054
 6530SOL     OW23383   2.674   1.586   2.549
 6530SOL    HW123384   2.706   1.596   2.455
 6530SOL    HW223385   2.595   1.524   2.551
 6531SOL     OW23386   3.286   0.214   2.974
 6531SOL    HW123387   3.338   0.149   3.029
 6531SOL    HW223388   3.237   0.277   3.035
 6532SOL     OW23389   2.863   0.034   3.016
 6532SOL    HW123390   2.800  -0.038   2.985
 6532SOL    HW223391   2.956  -0.002   3.016
 6533SOL     OW23392   2.632   1.330   2.163
 6533SOL    HW123393   2.586   1.243   2.180
 6533SOL    HW223394   2.723   1.327   2.204
 6534SOL     OW23395   2.480   1.567   3.146
 6534SOL    HW123396   2.475   1.649   3.203
 6534SOL    HW223397   2.569   1.564   3.101
 6535SOL     OW23398   3.214   0.052   2.030
 6535SOL    HW123399   3.249   0.011   1.946
 6535SOL    HW223400   3.124   0.014   2.050
 6536SOL     OW23401   3.455   0.221   2.744
 6536SOL    HW123402   3.371   0.220   2.798
 6536SOL    HW223403   3.457   0.304   2.688
 6537SOL     OW23404   1.901   1.077   2.162
 6537SOL    HW123405   2.000   1.066   2.153
 6537SOL    HW223406   1.861   0.991   2.194
 6538SOL     OW23407   2.737   1.646   2.199
 6538SOL    HW123408   2.660   1.611   2.145
 6538SOL    HW223409   2.705   1.717   2.261
 6539SOL     OW23410   2.092   0.628   3.837
 6539SOL    HW123411   1.999   0.626   3.874
 6539SOL    HW223412   2.093   0.589   3.745
 6540SOL     OW23413   2.431   1.275   4.889
 6540SOL    HW123414   2.338   1.268   4.852
 6540SOL    HW223415   2.442   1.364   4.933
 6541SOL     OW23416   3.417   1.511   4.427
 6541SOL    HW123417   3.360   1.495   4.508
 6541SOL    HW223418   3.358   1.521   4.347
 6542SOL     OW23419   2.997   0.703   4.441
 6542SOL    HW123420   3.054   0.781   4.416
 6542SOL    HW223421   2.937   0.729   4.517
 6543SOL     OW23422   3.617   0.607   3.955
 6543SOL    HW123423   3.605   0.594   3.856
 6543SOL    HW223424   3.587   0.526   4.004
 6544SOL     OW23425   2.630   1.144   4.747
 6544SOL    HW123426   2.552   1.161   4.807
 6544SOL    HW223427   2.664   1.231   4.711
 6545SOL     OW23428   2.712   0.798   5.547
 6545SOL    HW123429   2.708   0.874   5.612
 6545SOL    HW223430   2.734   0.834   5.456
 6546SOL     OW23431   2.547   1.012   4.389
 6546SOL    HW123432   2.616   0.996   4.459
 6546SOL    HW223433   2.474   1.069   4.427
 6547SOL     OW23434   2.548   1.161   5.527
 6547SOL    HW123435   2.608   1.240   5.541
 6547SOL    HW223436   2.462   1.192   5.486
 6548SOL     OW23437   2.197   1.435   4.785
 6548SOL    HW123438   2.119   1.404   4.732
 6548SOL    HW223439   2.255   1.493   4.728
 6549SOL     OW23440   3.322   1.505   5.063
 6549SOL    HW123441   3.346   1.599   5.089
 6549SOL    HW223442   3.306   1.451   5.145
 6550SOL     OW23443   2.300   0.392   5.223
 6550SOL    HW123444   2.382   0.336   5.232
 6550SOL    HW223445   2.219   0.334   5.227
 6551SOL     OW23446   3.465   0.447   4.461
 6551SOL    HW123447   3.391   0.493   4.411
 6551SOL    HW223448   3.516   0.515   4.514
 6552SOL     OW23449   2.093   1.713   4.207
 6552SOL    HW123450   2.127   1.790   4.261
 6552SOL    HW223451   2.137   1.713   4.117
 6553SOL     OW23452   2.989   1.341   5.414
 6553SOL    HW123453   3.036   1.341   5.502
 6553SOL    HW223454   2.941   1.254   5.403
 6554SOL     OW23455   2.092   1.434   4.262
 6554SOL    HW123456   2.066   1.530   4.262
 6554SOL    HW223457   2.021   1.380   4.307
 6555SOL     OW23458   2.102   1.091   4.610
 6555SOL    HW123459   2.116   1.007   4.662
 6555SOL    HW223460   2.047   1.155   4.665
 6556SOL     OW23461   2.482   1.786   5.163
 6556SOL    HW123462   2.390   1.769   5.198
 6556SOL    HW223463   2.510   1.878   5.189
 6557SOL     OW23464   2.468   0.964   3.847
 6557SOL    HW123465   2.475   1.048   3.793
 6557SOL    HW223466   2.514   0.977   3.935
 6558SOL     OW23467   3.456   0.114   5.204
 6558SOL    HW123468   3.438   0.181   5.132
 6558SOL    HW223469   3.453   0.160   5.293
 6559SOL     OW23470   3.704   1.767   4.083
 6559SOL    HW123471   3.758   1.738   4.163
 6559SOL    HW223472   3.734   1.857   4.054
 6560SOL     OW23473   1.889   1.596   3.841
 6560SOL    HW123474   1.870   1.500   3.862
 6560SOL    HW223475   1.856   1.654   3.916
 6561SOL     OW23476   3.551   0.922   4.336
 6561SOL    HW123477   3.646   0.893   4.344
 6561SOL    HW223478   3.543   0.987   4.261
 6562SOL     OW23479   3.503   1.108   4.156
 6562SOL    HW123480   3.589   1.110   4.104
 6562SOL    HW223481   3.517   1.155   4.244
 6563SOL     OW23482   1.975   0.737   5.321
 6563SOL    HW123483   2.063   0.724   5.366
 6563SOL    HW223484   1.962   0.834   5.299
 6564SOL     OW23485   2.475   1.365   4.450
 6564SOL    HW123486   2.426   1.278   4.459
 6564SOL    HW223487   2.452   1.408   4.363
 6565SOL     OW23488   3.155   1.228   5.147
 6565SOL    HW123489   3.192   1.155   5.089
 6565SOL    HW223490   3.207   1.233   5.232
 6566SOL     OW23491   2.059   0.976   4.988
 6566SOL    HW123492   2.148   0.931   4.974
 6566SOL    HW223493   1.986   0.911   4.969
 6567SOL     OW23494   3.387   0.999   3.914
 6567SOL    HW123495   3.324   0.923   3.927
 6567SOL    HW223496   3.435   1.017   4.000
 6568SOL     OW23497   3.049   1.792   5.340
 6568SOL    HW123498   3.073   1.852   5.264
 6568SOL    HW223499   3.056   1.697   5.310
 6569SOL     OW23500   2.179   0.251   5.525
 6569SOL    HW123501   2.250   0.322   5.531
 6569SOL    HW223502   2.091   0.290   5.553
 6570SOL     OW23503   3.328   1.417   4.677
 6570SOL    HW123504   3.269   1.423   4.757
 6570SOL    HW223505   3.313   1.329   4.631
 6571SOL     OW23506   3.529   1.714   4.296
 6571SOL    HW123507   3.488   1.691   4.208
 6571SOL    HW223508   3.511   1.640   4.361
 6572SOL     OW23509   2.460   0.729   3.994
 6572SOL    HW123510   2.484   0.798   3.926
 6572SOL    HW223511   2.382   0.762   4.048
 6573SOL     OW23512   3.438   1.662   4.031
 6573SOL    HW123513   3.527   1.708   4.034
 6573SOL    HW223514   3.417   1.638   3.936
 6574SOL     OW23515   2.669   0.605   5.189
 6574SOL    HW123516   2.622   0.602   5.278
 6574SOL    HW223517   2.618   0.550   5.123
 6575SOL     OW23518   3.256   0.469   5.398
 6575SOL    HW123519   3.236   0.512   5.486
 6575SOL    HW223520   3.334   0.407   5.407
 6576SOL     OW23521   2.835   0.890   5.296
 6576SOL    HW123522   2.881   0.806   5.267
 6576SOL    HW223523   2.779   0.924   5.221
 6577SOL     OW23524   2.853   0.410   4.966
 6577SOL    HW123525   2.776   0.444   5.020
 6577SOL    HW223526   2.819   0.359   4.887
 6578SOL     OW23527   2.903   0.701   4.153
 6578SOL    HW123528   2.929   0.697   4.249
 6578SOL    HW223529   2.818   0.650   4.139
 6579SOL     OW23530   1.992   1.821   5.295
 6579SOL    HW123531   1.982   1.806   5.394
 6579SOL    HW223532   1.906   1.857   5.259
 6580SOL     OW23533   2.727   0.348   3.919
 6580SOL    HW123534   2.786   0.411   3.870
 6580SOL    HW223535   2.746   0.254   3.890
 6581SOL     OW23536   3.581   0.585   5.555
 6581SOL    HW123537   3.555   0.674   5.519
 6581SOL    HW223538   3.579   0.517   5.482
 6582SOL     OW23539   3.224   1.144   4.269
 6582SOL    HW123540   3.307   1.115   4.221
 6582SOL    HW223541   3.175   1.211   4.213
 6583SOL     OW23542   2.870   1.456   4.201
 6583SOL    HW123543   2.824   1.528   4.149
 6583SOL    HW223544   2.866   1.476   4.299
 6584SOL     OW23545   2.213   1.801   4.577
 6584SOL    HW123546   2.263   1.715   4.583
 6584SOL    HW223547   2.278   1.878   4.574
 6585SOL     OW23548   3.657   1.066   4.597
 6585SOL    HW123549   3.595   1.051   4.521
 6585SOL    HW223550   3.605   1.077   4.682
 6586SOL     OW23551   3.089   1.550   5.230
 6586SOL    HW123552   3.095   1.473   5.294
 6586SOL    HW223553   3.037   1.524   5.150
 6587SOL     OW23554   2.183   0.943   3.966
 6587SOL    HW123555   2.265   0.982   3.924
 6587SOL    HW223556   2.156   0.861   3.917
 6588SOL     OW23557   3.320   0.735   4.452
 6588SOL    HW123558   3.315   0.670   4.527
 6588SOL    HW223559   3.400   0.794   4.465
 6589SOL     OW23560   2.323   1.266   5.451
 6589SOL    HW123561   2.273   1.267   5.365
 6589SOL    HW223562   2.260   1.248   5.527
 6590SOL     OW23563   2.973   1.776   3.961
 6590SOL    HW123564   2.913   1.714   4.011
 6590SOL    HW223565   3.004   1.732   3.876
 6591SOL     OW23566   2.064   0.285   5.222
 6591SOL    HW123567   1.984   0.345   5.209
 6591SOL    HW223568   2.054   0.236   5.308
 6592SOL     OW23569   3.494   1.377   3.805
 6592SOL    HW123570   3.462   1.471   3.795
 6592SOL    HW223571   3.418   1.314   3.793
 6593SOL     OW23572   2.326   1.743   4.047
 6593SOL    HW123573   2.359   1.782   4.133
 6593SOL    HW223574   2.402   1.736   3.982
 6594SOL     OW23575   3.262   0.107   4.150
 6594SOL    HW123576   3.238   0.070   4.060
 6594SOL    HW223577   3.361   0.123   4.154
 6595SOL     OW23578   2.111   1.785   4.965
 6595SOL    HW123579   2.168   1.720   5.015
 6595SOL    HW223580   2.095   1.752   4.872
 6596SOL     OW23581   2.802   1.698   4.628
 6596SOL    HW123582   2.882   1.641   4.649
 6596SOL    HW223583   2.753   1.658   4.551
 6597SOL     OW23584   2.244   0.700   4.204
 6597SOL    HW123585   2.289   0.610   4.201
 6597SOL    HW223586   2.150   0.689   4.237
 6598SOL     OW23587   3.409   0.222   5.453
 6598SOL    HW123588   3.404   0.259   5.545
 6598SOL    HW223589   3.337   0.153   5.441
 6599SOL     OW23590   2.476   0.122   3.841
 6599SOL    HW123591   2.574   0.100   3.848
 6599SOL    HW223592   2.445   0.105   3.748
 6600SOL     OW23593   2.643   0.264   5.473
 6600SOL    HW123594   2.710   0.203   5.516
 6600SOL    HW223595   2.570   0.283   5.538
 6601SOL     OW23596   2.750   1.514   4.919
 6601SOL    HW123597   2.727   1.489   4.825
 6601SOL    HW223598   2.811   1.445   4.958
 6602SOL     OW23599   3.213   0.590   5.157
 6602SOL    HW123600   3.241   0.547   5.242
 6602SOL    HW223601   3.238   0.686   5.158
 6603SOL     OW23602   2.665   1.402   4.648
 6603SOL    HW123603   2.755   1.416   4.606
 6603SOL    HW223604   2.594   1.404   4.577
 6604SOL     OW23605   2.784   0.503   4.623
 6604SOL    HW123606   2.759   0.494   4.527
 6604SOL    HW223607   2.832   0.421   4.654
 6605SOL     OW23608   2.401   0.064   4.236
 6605SOL    HW123609   2.320   0.065   4.294
 6605SOL    HW223610   2.404   0.147   4.181
 6606SOL     OW23611   3.296   1.188   3.765
 6606SOL    HW123612   3.328   1.112   3.822
 6606SOL    HW223613   3.204   1.215   3.795
 6607SOL     OW23614   2.159   0.035   3.895
 6607SOL    HW123615   2.208   0.119   3.874
 6607SOL    HW223616   2.221  -0.030   3.940
 6608SOL     OW23617   2.797   0.236   4.204
 6608SOL    HW123618   2.749   0.277   4.126
 6608SOL    HW223619   2.896   0.234   4.185
 6609SOL     OW23620   2.938   0.683   5.188
 6609SOL    HW123621   2.858   0.622   5.191
 6609SOL    HW223622   3.019   0.630   5.164
 6610SOL     OW23623   3.089   1.570   4.517
 6610SOL    HW123624   3.110   1.644   4.452
 6610SOL    HW223625   3.157   1.570   4.590
 6611SOL     OW23626   2.321   1.152   4.465
 6611SOL    HW123627   2.250   1.125   4.530
 6611SOL    HW223628   2.295   1.124   4.372
 6612SOL     OW23629   3.133   1.797   4.315
 6612SOL    HW123630   3.177   1.861   4.251
 6612SOL    HW223631   3.083   1.849   4.385
 6613SOL     OW23632   2.894   0.549   3.740
 6613SOL    HW123633   2.853   0.631   3.701
 6613SOL    HW223634   2.958   0.575   3.813
 6614SOL     OW23635   1.940   0.556   5.110
 6614SOL    HW123636   2.032   0.555   5.069
 6614SOL    HW223637   1.934   0.630   5.177
 6615SOL     OW23638   2.423   0.222   4.871
 6615SOL    HW123639   2.461   0.138   4.908
 6615SOL    HW223640   2.335   0.241   4.915
 6616SOL     OW23641   2.728   0.454   4.366
 6616SOL    HW123642   2.696   0.526   4.304
 6616SOL    HW223643   2.752   0.373   4.313
 6617SOL     OW23644   3.291   1.173   4.591
 6617SOL    HW123645   3.236   1.089   4.584
 6617SOL    HW223646   3.317   1.202   4.499
 6618SOL     OW23647   3.328   0.590   4.716
 6618SOL    HW123648   3.298   0.495   4.723
 6618SOL    HW223649   3.401   0.606   4.782
 6619SOL     OW23650   3.719   0.833   4.101
 6619SOL    HW123651   3.761   0.769   4.165
 6619SOL    HW223652   3.681   0.782   4.023
 6620SOL     OW23653   2.350   1.385   3.898
 6620SOL    HW123654   2.263   1.370   3.945
 6620SOL    HW223655   2.333   1.411   3.803
 6621SOL     OW23656   3.526   1.280   4.381
 6621SOL    HW123657   3.625   1.288   4.395
 6621SOL    HW223658   3.481   1.364   4.412
 6622SOL     OW23659   3.252   0.575   3.802
 6622SOL    HW123660   3.198   0.554   3.883
 6622SOL    HW223661   3.343   0.534   3.811
 6623SOL     OW23662   2.389   0.256   4.052
 6623SOL    HW123663   2.416   0.197   3.977
 6623SOL    HW223664   2.389   0.351   4.021
 6624SOL     OW23665   3.616   1.223   5.312
 6624SOL    HW123666   3.707   1.184   5.299
 6624SOL    HW223667   3.624   1.319   5.336
 6625SOL     OW23668   2.926   1.347   5.064
 6625SOL    HW123669   2.846   1.324   5.119
 6625SOL    HW223670   3.009   1.321   5.113
 6626SOL     OW23671   3.454   1.629   5.349
 6626SOL    HW123672   3.481   1.663   5.259
 6626SOL    HW223673   3.533   1.591   5.395
 6627SOL     OW23674   2.973   1.195   4.824
 6627SOL    HW123675   2.933   1.239   4.905
 6627SOL    HW223676   2.932   1.232   4.741
 6628SOL     OW23677   3.500   1.099   4.803
 6628SOL    HW123678   3.505   1.180   4.862
 6628SOL    HW223679   3.414   1.101   4.752
 6629SOL     OW23680   2.777   0.089   5.126
 6629SOL    HW123681   2.802   0.069   5.031
 6629SOL    HW223682   2.849   0.145   5.168
 6630SOL     OW23683   2.842   1.116   5.443
 6630SOL    HW123684   2.743   1.122   5.453
 6630SOL    HW223685   2.865   1.036   5.387
 6631SOL     OW23686   2.567   1.050   4.092
 6631SOL    HW123687   2.553   1.057   4.191
 6631SOL    HW223688   2.651   0.999   4.074
 6632SOL     OW23689   2.272   0.813   4.975
 6632SOL    HW123690   2.358   0.825   5.025
 6632SOL    HW223691   2.230   0.726   5.002
 6633SOL     OW23692   1.926   1.564   5.055
 6633SOL    HW123693   1.880   1.646   5.021
 6633SOL    HW223694   2.024   1.583   5.064
 6634SOL     OW23695   2.229   1.100   4.225
 6634SOL    HW123696   2.222   1.183   4.169
 6634SOL    HW223697   2.233   1.020   4.165
 6635SOL     OW23698   2.428   0.537   4.589
 6635SOL    HW123699   2.440   0.603   4.515
 6635SOL    HW223700   2.474   0.571   4.672
 6636SOL     OW23701   3.114   1.348   4.112
 6636SOL    HW123702   3.164   1.425   4.152
 6636SOL    HW223703   3.019   1.350   4.144
 6637SOL     OW23704   3.134   1.445   4.866
 6637SOL    HW123705   3.181   1.458   4.953
 6637SOL    HW223706   3.068   1.371   4.875
 6638SOL     OW23707   3.444   0.639   4.196
 6638SOL    HW123708   3.413   0.700   4.269
 6638SOL    HW223709   3.494   0.691   4.127
 6639SOL     OW23710   2.216   1.510   5.053
 6639SOL    HW123711   2.195   1.466   4.966
 6639SOL    HW223712   2.313   1.536   5.056
 6640SOL     OW23713   2.264   0.751   5.322
 6640SOL    HW123714   2.332   0.806   5.275
 6640SOL    HW223715   2.304   0.663   5.349
 6641SOL     OW23716   3.449   0.779   5.394
 6641SOL    HW123717   3.357   0.817   5.389
 6641SOL    HW223718   3.509   0.826   5.329
 6642SOL     OW23719   2.875   0.105   5.494
 6642SOL    HW123720   2.881   0.190   5.442
 6642SOL    HW223721   2.907   0.029   5.437
 6643SOL     OW23722   2.366   0.050   5.464
 6643SOL    HW123723   2.324  -0.007   5.394
 6643SOL    HW223724   2.300   0.119   5.496
 6644SOL     OW23725   2.435   0.870   4.753
 6644SOL    HW123726   2.479   0.959   4.744
 6644SOL    HW223727   2.372   0.870   4.830
 6645SOL     OW23728   3.222   0.862   4.769
 6645SOL    HW123729   3.147   0.862   4.703
 6645SOL    HW223730   3.259   0.770   4.778
 6646SOL     OW23731   3.071   0.525   3.999
 6646SOL    HW123732   3.084   0.441   4.053
 6646SOL    HW223733   3.042   0.599   4.059
 6647SOL     OW23734   1.899   1.310   5.006
 6647SOL    HW123735   1.952   1.261   5.074
 6647SOL    HW223736   1.921   1.408   5.011
 6648SOL     OW23737   2.594   0.634   4.788
 6648SOL    HW123738   2.653   0.608   4.712
 6648SOL    HW223739   2.566   0.730   4.777
 6649SOL     OW23740   3.590   0.935   5.578
 6649SOL    HW123741   3.544   0.928   5.489
 6649SOL    HW223742   3.528   0.979   5.644
 6650SOL     OW23743   3.484   0.367   4.098
 6650SOL    HW123744   3.486   0.291   4.162
 6650SOL    HW223745   3.436   0.444   4.138
 6651SOL     OW23746   2.885   0.766   4.690
 6651SOL    HW123747   2.900   0.787   4.786
 6651SOL    HW223748   2.855   0.671   4.681
 6652SOL     OW23749   2.842   1.573   5.424
 6652SOL    HW123750   2.822   1.617   5.336
 6652SOL    HW223751   2.881   1.482   5.408
 6653SOL     OW23752   2.212   0.898   5.528
 6653SOL    HW123753   2.288   0.942   5.576
 6653SOL    HW223754   2.247   0.851   5.446
 6654SOL     OW23755   3.402   0.274   3.849
 6654SOL    HW123756   3.341   0.199   3.872
 6654SOL    HW223757   3.424   0.326   3.932
 6655SOL     OW23758   3.165   0.838   3.766
 6655SOL    HW123759   3.199   0.745   3.781
 6655SOL    HW223760   3.183   0.865   3.671
 6656SOL     OW23761   2.930   1.333   4.573
 6656SOL    HW123762   2.937   1.249   4.518
 6656SOL    HW223763   2.992   1.402   4.537
 6657SOL     OW23764   2.181   0.810   4.673
 6657SOL    HW123765   2.274   0.846   4.678
 6657SOL    HW223766   2.175   0.725   4.725
 6658SOL     OW23767   3.000   0.380   5.402
 6658SOL    HW123768   2.955   0.443   5.466
 6658SOL    HW223769   3.093   0.411   5.385
 6659SOL     OW23770   3.022   0.207   5.201
 6659SOL    HW123771   3.022   0.271   5.278
 6659SOL    HW223772   3.050   0.255   5.118
 6660SOL     OW23773   1.870   1.326   3.924
 6660SOL    HW123774   1.777   1.347   3.893
 6660SOL    HW223775   1.880   1.227   3.937
 6661SOL     OW23776   1.950   1.801   4.651
 6661SOL    HW123777   1.908   1.715   4.624
 6661SOL    HW223778   2.044   1.804   4.617
 6662SOL     OW23779   2.366   1.568   4.634
 6662SOL    HW123780   2.432   1.642   4.643
 6662SOL    HW223781   2.410   1.489   4.592
 6663SOL     OW23782   2.864   0.796   4.962
 6663SOL    HW123783   2.905   0.764   5.048
 6663SOL    HW223784   2.768   0.769   4.959
 6664SOL     OW23785   2.051   0.520   5.446
 6664SOL    HW123786   2.110   0.480   5.376
 6664SOL    HW223787   1.993   0.591   5.405
 6665SOL     OW23788   3.231   0.950   5.384
 6665SOL    HW123789   3.270   1.039   5.404
 6665SOL    HW223790   3.241   0.930   5.287
 6666SOL     OW23791   2.677   0.572   4.049
 6666SOL    HW123792   2.684   0.483   4.003
 6666SOL    HW223793   2.583   0.606   4.041
 6667SOL     OW23794   3.519   0.604   4.930
 6667SOL    HW123795   3.481   0.535   4.992
 6667SOL    HW223796   3.601   0.568   4.886
 6668SOL     OW23797   2.114   1.564   5.468
 6668SOL    HW123798   2.084   1.621   5.544
 6668SOL    HW223799   2.107   1.467   5.494
 6669SOL     OW23800   2.533   0.464   4.993
 6669SOL    HW123801   2.499   0.375   4.963
 6669SOL    HW223802   2.559   0.518   4.913
 6670SOL     OW23803   2.792   1.678   5.189
 6670SOL    HW123804   2.768   1.660   5.094
 6670SOL    HW223805   2.822   1.772   5.199
 6671SOL     OW23806   2.335   0.500   3.915
 6671SOL    HW123807   2.396   0.580   3.919
 6671SOL    HW223808   2.240   0.531   3.922
 6672SOL     OW23809   2.021   1.137   5.190
 6672SOL    HW123810   2.043   1.076   5.266
 6672SOL    HW223811   2.031   1.088   5.104
 6673SOL     OW23812   3.209   1.059   4.958
 6673SOL    HW123813   3.233   0.996   4.884
 6673SOL    HW223814   3.119   1.099   4.940
 6674SOL     OW23815   3.164   0.855   4.033
 6674SOL    HW123816   3.078   0.824   4.075
 6674SOL    HW223817   3.160   0.841   3.934
 6675SOL     OW23818   3.621   1.747   4.878
 6675SOL    HW123819   3.682   1.777   4.805
 6675SOL    HW223820   3.583   1.658   4.856
 6676SOL     OW23821   3.114   1.731   4.852
 6676SOL    HW123822   3.198   1.736   4.798
 6676SOL    HW223823   3.091   1.635   4.870
 6677SOL     OW23824   1.945   1.258   4.746
 6677SOL    HW123825   1.940   1.257   4.846
 6677SOL    HW223826   1.862   1.217   4.708
 6678SOL     OW23827   2.550   1.662   5.440
 6678SOL    HW123828   2.494   1.743   5.449
 6678SOL    HW223829   2.602   1.666   5.354
 6679SOL     OW23830   3.588   0.135   4.247
 6679SOL    HW123831   3.661   0.118   4.180
 6679SOL    HW223832   3.557   0.048   4.285
 6680SOL     OW23833   3.250   1.573   4.201
 6680SOL    HW123834   3.317   1.585   4.127
 6680SOL    HW223835   3.210   1.662   4.224
 6681SOL     OW23836   1.992   1.794   5.575
 6681SOL    HW123837   1.951   1.720   5.628
 6681SOL    HW223838   2.056   1.845   5.633
 6682SOL     OW23839   3.142   0.927   4.396
 6682SOL    HW123840   3.202   0.846   4.398
 6682SOL    HW223841   3.182   0.996   4.336
 6683SOL     OW23842   2.692   1.273   5.146
 6683SOL    HW123843   2.687   1.306   5.241
 6683SOL    HW223844   2.606   1.292   5.100
 6684SOL     OW23845   2.534   1.616   3.878
 6684SOL    HW123846   2.543   1.626   3.779
 6684SOL    HW223847   2.494   1.527   3.899
 6685SOL     OW23848   3.512   1.720   5.118
 6685SOL    HW123849   3.565   1.730   5.034
 6685SOL    HW223850   3.485   1.810   5.152
 6686SOL     OW23851   3.703   0.175   4.687
 6686SOL    HW123852   3.742   0.090   4.651
 6686SOL    HW223853   3.605   0.177   4.668
 6687SOL     OW23854   2.125   0.326   4.444
 6687SOL    HW123855   2.046   0.377   4.410
 6687SOL    HW223856   2.116   0.311   4.542
 6688SOL     OW23857   3.056   1.612   3.755
 6688SOL    HW123858   3.062   1.519   3.792
 6688SOL    HW223859   2.997   1.612   3.675
 6689SOL     OW23860   2.684   1.002   5.096
 6689SOL    HW123861   2.724   1.001   5.004
 6689SOL    HW223862   2.694   1.094   5.136
 6690SOL     OW23863   2.778   0.910   4.015
 6690SOL    HW123864   2.841   0.948   3.947
 6690SOL    HW223865   2.818   0.827   4.054
 6691SOL     OW23866   3.366   1.607   3.768
 6691SOL    HW123867   3.274   1.644   3.775
 6691SOL    HW223868   3.404   1.627   3.678
 6692SOL     OW23869   2.234   1.288   5.214
 6692SOL    HW123870   2.221   1.381   5.180
 6692SOL    HW223871   2.150   1.236   5.201
 6693SOL     OW23872   3.476   1.292   5.013
 6693SOL    HW123873   3.536   1.295   5.093
 6693SOL    HW223874   3.401   1.356   5.026
 6694SOL     OW23875   2.901   1.098   4.420
 6694SOL    HW123876   2.831   1.051   4.474
 6694SOL    HW223877   2.960   1.030   4.377
 6695SOL     OW23878   2.452   1.487   4.215
 6695SOL    HW123879   2.494   1.429   4.145
 6695SOL    HW223880   2.408   1.566   4.171
 6696SOL     OW23881   3.571   0.385   5.105
 6696SOL    HW123882   3.644   0.454   5.109
 6696SOL    HW223883   3.599   0.310   5.046
 6697SOL     OW23884   2.117   1.348   4.014
 6697SOL    HW123885   2.021   1.349   3.987
 6697SOL    HW223886   2.129   1.401   4.098
 6698SOL     OW23887   1.967   1.013   5.450
 6698SOL    HW123888   1.890   0.980   5.504
 6698SOL    HW223889   2.052   0.983   5.492
 6699SOL     OW23890   2.534   0.203   5.213
 6699SOL    HW123891   2.624   0.187   5.173
 6699SOL    HW223892   2.542   0.208   5.312
 6700SOL     OW23893   1.937   0.345   3.757
 6700SOL    HW123894   1.845   0.317   3.728
 6700SOL    HW223895   1.968   0.422   3.701
 6701SOL     OW23896   3.302   0.856   5.122
 6701SOL    HW123897   3.245   0.908   5.059
 6701SOL    HW223898   3.398   0.868   5.098
 6702SOL     OW23899   1.934   0.166   4.042
 6702SOL    HW123900   1.917   0.249   3.988
 6702SOL    HW223901   2.024   0.129   4.020
 6703SOL     OW23902   3.045   1.335   3.843
 6703SOL    HW123903   2.946   1.324   3.845
 6703SOL    HW223904   3.079   1.350   3.936
 6704SOL     OW23905   2.475   0.842   5.155
 6704SOL    HW123906   2.531   0.923   5.138
 6704SOL    HW223907   2.534   0.762   5.158
 6705SOL     OW23908   3.355   1.767   4.683
 6705SOL    HW123909   3.388   1.831   4.614
 6705SOL    HW223910   3.421   1.761   4.758
 6706SOL     OW23911   2.578   0.565   5.432
 6706SOL    HW123912   2.597   0.630   5.506
 6706SOL    HW223913   2.638   0.485   5.441
 6707SOL     OW23914   3.312   1.220   5.357
 6707SOL    HW123915   3.303   1.210   5.456
 6707SOL    HW223916   3.408   1.213   5.331
 6708SOL     OW23917   2.252   1.741   5.284
 6708SOL    HW123918   2.161   1.782   5.282
 6708SOL    HW223919   2.245   1.647   5.316
 6709SOL     OW23920   3.536   0.883   4.978
 6709SOL    HW123921   3.509   0.794   4.941
 6709SOL    HW223922   3.537   0.951   4.905
 6710SOL     OW23923   3.087   0.325   4.173
 6710SOL    HW123924   3.152   0.251   4.162
 6710SOL    HW223925   3.107   0.375   4.257
 6711SOL     OW23926   2.456   0.745   4.376
 6711SOL    HW123927   2.506   0.830   4.357
 6711SOL    HW223928   2.368   0.747   4.328
 6712SOL     OW23929   3.639   0.342   5.366
 6712SOL    HW123930   3.622   0.373   5.272
 6712SOL    HW223931   3.555   0.305   5.404
 6713SOL     OW23932   3.592   0.934   5.241
 6713SOL    HW123933   3.630   1.025   5.256
 6713SOL    HW223934   3.584   0.917   5.142
 6714SOL     OW23935   2.721   1.374   3.740
 6714SOL    HW123936   2.675   1.389   3.828
 6714SOL    HW223937   2.765   1.459   3.710
 6715SOL     OW23938   2.523   1.790   4.677
 6715SOL    HW123939   2.477   1.878   4.664
 6715SOL    HW223940   2.622   1.802   4.670
 6716SOL     OW23941   2.721   0.956   4.585
 6716SOL    HW123942   2.775   0.887   4.633
 6716SOL    HW223943   2.689   1.025   4.651
 6717SOL     OW23944   2.945   0.984   3.811
 6717SOL    HW123945   2.922   1.037   3.729
 6717SOL    HW223946   3.026   0.928   3.792
 6718SOL     OW23947   3.723   1.569   4.575
 6718SOL    HW123948   3.652   1.557   4.505
 6718SOL    HW223949   3.724   1.490   4.635
 6719SOL     OW23950   2.083   1.314   5.568
 6719SOL    HW123951   2.018   1.241   5.547
 6719SOL    HW223952   2.087   1.328   5.666
 6720SOL     OW23953   1.941   1.240   4.377
 6720SOL    HW123954   1.940   1.193   4.465
 6720SOL    HW223955   2.023   1.212   4.326
 6721SOL     OW23956   2.534   1.391   5.348
 6721SOL    HW123957   2.456   1.341   5.386
 6721SOL    HW223958   2.531   1.486   5.379
 6722SOL     OW23959   3.686   0.192   4.951
 6722SOL    HW123960   3.682   0.102   4.995
 6722SOL    HW223961   3.689   0.181   4.852
 6723SOL     OW23962   2.290   0.424   4.244
 6723SOL    HW123963   2.320   0.352   4.182
 6723SOL    HW223964   2.251   0.384   4.327
 6724SOL     OW23965   3.567   1.487   4.828
 6724SOL    HW123966   3.474   1.462   4.801
 6724SOL    HW223967   3.593   1.437   4.910
 6725SOL     OW23968   2.179   0.547   5.004
 6725SOL    HW123969   2.217   0.488   5.076
 6725SOL    HW223970   2.219   0.521   4.916
 6726SOL     OW23971   2.674   1.586   4.411
 6726SOL    HW123972   2.706   1.596   4.317
 6726SOL    HW223973   2.595   1.524   4.413
 6727SOL     OW23974   2.863   0.034   4.878
 6727SOL    HW123975   2.800  -0.038   4.847
 6727SOL    HW223976   2.956  -0.002   4.878
 6728SOL     OW23977   2.632   1.330   4.025
 6728SOL    HW123978   2.586   1.243   4.042
 6728SOL    HW223979   2.723   1.327   4.066
 6729SOL     OW23980   2.480   1.567   5.008
 6729SOL    HW123981   2.475   1.649   5.065
 6729SOL    HW223982   2.569   1.564   4.963
 6730SOL     OW23983   3.214   0.052   3.892
 6730SOL    HW123984   3.249   0.011   3.808
 6730SOL    HW223985   3.124   0.014   3.912
 6731SOL     OW23986   1.901   1.077   4.024
 6731SOL    HW123987   2.000   1.066   4.015
 6731SOL    HW223988   1.861   0.991   4.056
 6732SOL     OW23989   2.737   1.646   4.061
 6732SOL    HW123990   2.660   1.611   4.007
 6732SOL    HW223991   2.705   1.717   4.123
 6733SOL     OW23992   2.092   0.628   5.699
 6733SOL    HW123993   1.999   0.626   5.736
 6733SOL    HW223994   2.093   0.589   5.607
 6734SOL     OW23995   2.087   0.275   6.582
 6734SOL    HW123996   2.122   0.258   6.674
 6734SOL    HW223997   1.999   0.230   6.570
 6735SOL     OW23998   1.881   0.368   6.233
 6735SOL    HW123999   1.799   0.411   6.272
 6735SOL    HW224000   1.853   0.295   6.170
 6736SOL     OW24001   2.431   1.275   6.751
 6736SOL    HW124002   2.338   1.268   6.714
 6736SOL    HW224003   2.442   1.364   6.795
 6737SOL     OW24004   3.417   1.511   6.289
 6737SOL    HW124005   3.360   1.495   6.370
 6737SOL    HW224006   3.358   1.521   6.209
 6738SOL     OW24007   2.997   0.703   6.303
 6738SOL    HW124008   3.054   0.781   6.278
 6738SOL    HW224009   2.937   0.729   6.379
 6739SOL     OW24010   2.630   1.144   6.609
 6739SOL    HW124011   2.552   1.161   6.669
 6739SOL    HW224012   2.664   1.231   6.573
 6740SOL     OW24013   2.712   0.798   7.409
 6740SOL    HW124014   2.708   0.874   7.474
 6740SOL    HW224015   2.734   0.834   7.318
 6741SOL     OW24016   2.547   1.012   6.251
 6741SOL    HW124017   2.616   0.996   6.321
 6741SOL    HW224018   2.474   1.069   6.289
 6742SOL     OW24019   2.548   1.161   7.389
 6742SOL    HW124020   2.608   1.240   7.403
 6742SOL    HW224021   2.462   1.192   7.348
 6743SOL     OW24022   2.197   1.435   6.647
 6743SOL    HW124023   2.119   1.404   6.594
 6743SOL    HW224024   2.255   1.493   6.590
 6744SOL     OW24025   2.300   0.392   7.085
 6744SOL    HW124026   2.382   0.336   7.094
 6744SOL    HW224027   2.219   0.334   7.089
 6745SOL     OW24028   3.465   0.447   6.323
 6745SOL    HW124029   3.391   0.493   6.273
 6745SOL    HW224030   3.516   0.515   6.376
 6746SOL     OW24031   2.093   1.713   6.069
 6746SOL    HW124032   2.127   1.790   6.123
 6746SOL    HW224033   2.137   1.713   5.979
 6747SOL     OW24034   2.989   1.341   7.276
 6747SOL    HW124035   3.036   1.341   7.364
 6747SOL    HW224036   2.941   1.254   7.265
 6748SOL     OW24037   2.092   1.434   6.124
 6748SOL    HW124038   2.066   1.530   6.124
 6748SOL    HW224039   2.021   1.380   6.169
 6749SOL     OW24040   2.102   1.091   6.472
 6749SOL    HW124041   2.116   1.007   6.524
 6749SOL    HW224042   2.047   1.155   6.527
 6750SOL     OW24043   2.482   1.786   7.025
 6750SOL    HW124044   2.390   1.769   7.060
 6750SOL    HW224045   2.510   1.878   7.051
 6751SOL     OW24046   2.468   0.964   5.709
 6751SOL    HW124047   2.475   1.048   5.655
 6751SOL    HW224048   2.514   0.977   5.797
 6752SOL     OW24049   3.456   0.114   7.066
 6752SOL    HW124050   3.438   0.181   6.994
 6752SOL    HW224051   3.453   0.160   7.155
 6753SOL     OW24052   1.984   0.643   6.149
 6753SOL    HW124053   1.939   0.555   6.166
 6753SOL    HW224054   1.983   0.697   6.233
 6754SOL     OW24055   3.704   1.767   5.945
 6754SOL    HW124056   3.758   1.738   6.025
 6754SOL    HW224057   3.734   1.857   5.916
 6755SOL     OW24058   1.889   1.596   5.703
 6755SOL    HW124059   1.870   1.500   5.724
 6755SOL    HW224060   1.856   1.654   5.778
 6756SOL     OW24061   3.551   0.922   6.198
 6756SOL    HW124062   3.646   0.893   6.206
 6756SOL    HW224063   3.543   0.987   6.123
 6757SOL     OW24064   3.503   1.108   6.018
 6757SOL    HW124065   3.589   1.110   5.966
 6757SOL    HW224066   3.517   1.155   6.106
 6758SOL     OW24067   1.975   0.737   7.183
 6758SOL    HW124068   2.063   0.724   7.228
 6758SOL    HW224069   1.962   0.834   7.161
 6759SOL     OW24070   2.475   1.365   6.312
 6759SOL    HW124071   2.426   1.278   6.321
 6759SOL    HW224072   2.452   1.408   6.225
 6760SOL     OW24073   3.155   1.228   7.009
 6760SOL    HW124074   3.192   1.155   6.951
 6760SOL    HW224075   3.207   1.233   7.094
 6761SOL     OW24076   2.671   0.004   6.088
 6761SOL    HW124077   2.711   0.095   6.079
 6761SOL    HW224078   2.571   0.012   6.094
 6762SOL     OW24079   2.059   0.976   6.850
 6762SOL    HW124080   2.148   0.931   6.836
 6762SOL    HW224081   1.986   0.911   6.831
 6763SOL     OW24082   3.387   0.999   5.776
 6763SOL    HW124083   3.324   0.923   5.789
 6763SOL    HW224084   3.435   1.017   5.862
 6764SOL     OW24085   3.049   1.792   7.202
 6764SOL    HW124086   3.073   1.852   7.126
 6764SOL    HW224087   3.056   1.697   7.172
 6765SOL     OW24088   3.529   1.714   6.158
 6765SOL    HW124089   3.488   1.691   6.070
 6765SOL    HW224090   3.511   1.640   6.223
 6766SOL     OW24091   2.460   0.729   5.856
 6766SOL    HW124092   2.484   0.798   5.788
 6766SOL    HW224093   2.382   0.762   5.910
 6767SOL     OW24094   3.143   0.345   6.530
 6767SOL    HW124095   3.057   0.295   6.517
 6767SOL    HW224096   3.205   0.291   6.586
 6768SOL     OW24097   3.438   1.662   5.893
 6768SOL    HW124098   3.527   1.708   5.896
 6768SOL    HW224099   3.417   1.638   5.798
 6769SOL     OW24100   2.669   0.605   7.051
 6769SOL    HW124101   2.622   0.602   7.140
 6769SOL    HW224102   2.618   0.550   6.985
 6770SOL     OW24103   3.256   0.469   7.260
 6770SOL    HW124104   3.236   0.512   7.348
 6770SOL    HW224105   3.334   0.407   7.269
 6771SOL     OW24106   2.835   0.890   7.158
 6771SOL    HW124107   2.881   0.806   7.129
 6771SOL    HW224108   2.779   0.924   7.083
 6772SOL     OW24109   2.853   0.410   6.828
 6772SOL    HW124110   2.776   0.444   6.882
 6772SOL    HW224111   2.819   0.359   6.749
 6773SOL     OW24112   2.903   0.701   6.015
 6773SOL    HW124113   2.929   0.697   6.111
 6773SOL    HW224114   2.818   0.650   6.001
 6774SOL     OW24115   1.938   0.811   6.375
 6774SOL    HW124116   2.037   0.799   6.384
 6774SOL    HW224117   1.914   0.906   6.396
 6775SOL     OW24118   2.727   0.348   5.781
 6775SOL    HW124119   2.786   0.411   5.732
 6775SOL    HW224120   2.746   0.254   5.752
 6776SOL     OW24121   3.581   0.585   7.417
 6776SOL    HW124122   3.555   0.674   7.381
 6776SOL    HW224123   3.579   0.517   7.344
 6777SOL     OW24124   3.224   1.144   6.131
 6777SOL    HW124125   3.307   1.115   6.083
 6777SOL    HW224126   3.175   1.211   6.075
 6778SOL     OW24127   2.412   0.196   6.471
 6778SOL    HW124128   2.407   0.191   6.571
 6778SOL    HW224129   2.414   0.292   6.442
 6779SOL     OW24130   2.870   1.456   6.063
 6779SOL    HW124131   2.824   1.528   6.011
 6779SOL    HW224132   2.866   1.476   6.161
 6780SOL     OW24133   2.213   1.801   6.439
 6780SOL    HW124134   2.263   1.715   6.445
 6780SOL    HW224135   2.278   1.878   6.436
 6781SOL     OW24136   3.657   1.066   6.459
 6781SOL    HW124137   3.595   1.051   6.383
 6781SOL    HW224138   3.605   1.077   6.544
 6782SOL     OW24139   3.089   1.550   7.092
 6782SOL    HW124140   3.095   1.473   7.156
 6782SOL    HW224141   3.037   1.524   7.012
 6783SOL     OW24142   2.183   0.943   5.828
 6783SOL    HW124143   2.265   0.982   5.786
 6783SOL    HW224144   2.156   0.861   5.779
 6784SOL     OW24145   3.320   0.735   6.314
 6784SOL    HW124146   3.315   0.670   6.389
 6784SOL    HW224147   3.400   0.794   6.327
 6785SOL     OW24148   2.323   1.266   7.313
 6785SOL    HW124149   2.273   1.267   7.227
 6785SOL    HW224150   2.260   1.248   7.389
 6786SOL     OW24151   2.973   1.776   5.823
 6786SOL    HW124152   2.913   1.714   5.873
 6786SOL    HW224153   3.004   1.732   5.738
 6787SOL     OW24154   3.494   1.377   5.667
 6787SOL    HW124155   3.462   1.471   5.657
 6787SOL    HW224156   3.418   1.314   5.655
 6788SOL     OW24157   2.326   1.743   5.909
 6788SOL    HW124158   2.359   1.782   5.995
 6788SOL    HW224159   2.402   1.736   5.844
 6789SOL     OW24160   3.262   0.107   6.012
 6789SOL    HW124161   3.238   0.070   5.922
 6789SOL    HW224162   3.361   0.123   6.016
 6790SOL     OW24163   2.111   1.785   6.827
 6790SOL    HW124164   2.168   1.720   6.877
 6790SOL    HW224165   2.095   1.752   6.734
 6791SOL     OW24166   2.802   1.698   6.490
 6791SOL    HW124167   2.882   1.641   6.511
 6791SOL    HW224168   2.753   1.658   6.413
 6792SOL     OW24169   3.409   0.222   7.315
 6792SOL    HW124170   3.404   0.259   7.407
 6792SOL    HW224171   3.337   0.153   7.303
 6793SOL     OW24172   2.476   0.122   5.703
 6793SOL    HW124173   2.574   0.100   5.710
 6793SOL    HW224174   2.445   0.105   5.610
 6794SOL     OW24175   2.643   0.264   7.335
 6794SOL    HW124176   2.710   0.203   7.378
 6794SOL    HW224177   2.570   0.283   7.400
 6795SOL     OW24178   2.750   1.514   6.781
 6795SOL    HW124179   2.727   1.489   6.687
 6795SOL    HW224180   2.811   1.445   6.820
 6796SOL     OW24181   3.213   0.590   7.019
 6796SOL    HW124182   3.241   0.547   7.104
 6796SOL    HW224183   3.238   0.686   7.020
 6797SOL     OW24184   2.665   1.402   6.510
 6797SOL    HW124185   2.755   1.416   6.468
 6797SOL    HW224186   2.594   1.404   6.439
 6798SOL     OW24187   2.784   0.503   6.485
 6798SOL    HW124188   2.759   0.494   6.389
 6798SOL    HW224189   2.832   0.421   6.516
 6799SOL     OW24190   3.296   1.188   5.627
 6799SOL    HW124191   3.328   1.112   5.684
 6799SOL    HW224192   3.204   1.215   5.657
 6800SOL     OW24193   2.159   0.035   5.757
 6800SOL    HW124194   2.208   0.119   5.736
 6800SOL    HW224195   2.221  -0.030   5.802
 6801SOL     OW24196   2.797   0.236   6.066
 6801SOL    HW124197   2.749   0.277   5.988
 6801SOL    HW224198   2.896   0.234   6.047
 6802SOL     OW24199   2.938   0.683   7.050
 6802SOL    HW124200   2.858   0.622   7.053
 6802SOL    HW224201   3.019   0.630   7.026
 6803SOL     OW24202   3.089   1.570   6.379
 6803SOL    HW124203   3.110   1.644   6.314
 6803SOL    HW224204   3.157   1.570   6.452
 6804SOL     OW24205   2.321   1.152   6.327
 6804SOL    HW124206   2.250   1.125   6.392
 6804SOL    HW224207   2.295   1.124   6.234
 6805SOL     OW24208   2.894   0.549   5.602
 6805SOL    HW124209   2.853   0.631   5.563
 6805SOL    HW224210   2.958   0.575   5.675
 6806SOL     OW24211   1.940   0.556   6.972
 6806SOL    HW124212   2.032   0.555   6.931
 6806SOL    HW224213   1.934   0.630   7.039
 6807SOL     OW24214   2.728   0.454   6.228
 6807SOL    HW124215   2.696   0.526   6.166
 6807SOL    HW224216   2.752   0.373   6.175
 6808SOL     OW24217   2.879   0.039   6.339
 6808SOL    HW124218   2.807   0.044   6.270
 6808SOL    HW224219   2.855  -0.030   6.408
 6809SOL     OW24220   3.291   1.173   6.453
 6809SOL    HW124221   3.236   1.089   6.446
 6809SOL    HW224222   3.317   1.202   6.361
 6810SOL     OW24223   3.328   0.590   6.578
 6810SOL    HW124224   3.298   0.495   6.585
 6810SOL    HW224225   3.401   0.606   6.644
 6811SOL     OW24226   3.719   0.833   5.963
 6811SOL    HW124227   3.761   0.769   6.027
 6811SOL    HW224228   3.681   0.782   5.885
 6812SOL     OW24229   2.350   1.385   5.760
 6812SOL    HW124230   2.263   1.370   5.807
 6812SOL    HW224231   2.333   1.411   5.665
 6813SOL     OW24232   3.526   1.280   6.243
 6813SOL    HW124233   3.625   1.288   6.257
 6813SOL    HW224234   3.481   1.364   6.274
 6814SOL     OW24235   3.616   1.223   7.174
 6814SOL    HW124236   3.707   1.184   7.161
 6814SOL    HW224237   3.624   1.319   7.198
 6815SOL     OW24238   2.926   1.347   6.926
 6815SOL    HW124239   2.846   1.324   6.981
 6815SOL    HW224240   3.009   1.321   6.975
 6816SOL     OW24241   3.454   1.629   7.211
 6816SOL    HW124242   3.481   1.663   7.121
 6816SOL    HW224243   3.533   1.591   7.257
 6817SOL     OW24244   2.973   1.195   6.686
 6817SOL    HW124245   2.933   1.239   6.767
 6817SOL    HW224246   2.932   1.232   6.603
 6818SOL     OW24247   3.500   1.099   6.665
 6818SOL    HW124248   3.505   1.180   6.724
 6818SOL    HW224249   3.414   1.101   6.614
 6819SOL     OW24250   2.777   0.089   6.988
 6819SOL    HW124251   2.802   0.069   6.893
 6819SOL    HW224252   2.849   0.145   7.030
 6820SOL     OW24253   2.842   1.116   7.305
 6820SOL    HW124254   2.743   1.122   7.315
 6820SOL    HW224255   2.865   1.036   7.249
 6821SOL     OW24256   2.567   1.050   5.954
 6821SOL    HW124257   2.553   1.057   6.053
 6821SOL    HW224258   2.651   0.999   5.936
 6822SOL     OW24259   2.272   0.813   6.837
 6822SOL    HW124260   2.358   0.825   6.887
 6822SOL    HW224261   2.230   0.726   6.864
 6823SOL     OW24262   3.136   0.386   6.848
 6823SOL    HW124263   3.157   0.460   6.912
 6823SOL    HW224264   3.047   0.403   6.805
 6824SOL     OW24265   1.926   1.564   6.917
 6824SOL    HW124266   1.880   1.646   6.883
 6824SOL    HW224267   2.024   1.583   6.926
 6825SOL     OW24268   2.229   1.100   6.087
 6825SOL    HW124269   2.222   1.183   6.031
 6825SOL    HW224270   2.233   1.020   6.027
 6826SOL     OW24271   2.428   0.537   6.451
 6826SOL    HW124272   2.440   0.603   6.377
 6826SOL    HW224273   2.474   0.571   6.534
 6827SOL     OW24274   3.114   1.348   5.974
 6827SOL    HW124275   3.164   1.425   6.014
 6827SOL    HW224276   3.019   1.350   6.006
 6828SOL     OW24277   3.134   1.445   6.728
 6828SOL    HW124278   3.181   1.458   6.815
 6828SOL    HW224279   3.068   1.371   6.737
 6829SOL     OW24280   2.216   1.510   6.915
 6829SOL    HW124281   2.195   1.466   6.828
 6829SOL    HW224282   2.313   1.536   6.918
 6830SOL     OW24283   2.264   0.751   7.184
 6830SOL    HW124284   2.332   0.806   7.137
 6830SOL    HW224285   2.304   0.663   7.211
 6831SOL     OW24286   3.449   0.779   7.256
 6831SOL    HW124287   3.357   0.817   7.251
 6831SOL    HW224288   3.509   0.826   7.191
 6832SOL     OW24289   2.875   0.105   7.356
 6832SOL    HW124290   2.881   0.190   7.304
 6832SOL    HW224291   2.907   0.029   7.299
 6833SOL     OW24292   2.366   0.050   7.326
 6833SOL    HW124293   2.324  -0.007   7.256
 6833SOL    HW224294   2.300   0.119   7.358
 6834SOL     OW24295   2.435   0.870   6.615
 6834SOL    HW124296   2.479   0.959   6.606
 6834SOL    HW224297   2.372   0.870   6.692
 6835SOL     OW24298   3.222   0.862   6.631
 6835SOL    HW124299   3.147   0.862   6.565
 6835SOL    HW224300   3.259   0.770   6.640
 6836SOL     OW24301   3.071   0.525   5.861
 6836SOL    HW124302   3.084   0.441   5.915
 6836SOL    HW224303   3.042   0.599   5.921
 6837SOL     OW24304   2.169   0.213   6.817
 6837SOL    HW124305   2.146   0.250   6.907
 6837SOL    HW224306   2.139   0.118   6.811
 6838SOL     OW24307   2.594   0.634   6.650
 6838SOL    HW124308   2.653   0.608   6.574
 6838SOL    HW224309   2.566   0.730   6.639
 6839SOL     OW24310   3.590   0.935   7.440
 6839SOL    HW124311   3.544   0.928   7.351
 6839SOL    HW224312   3.528   0.979   7.506
 6840SOL     OW24313   2.885   0.766   6.552
 6840SOL    HW124314   2.900   0.787   6.648
 6840SOL    HW224315   2.855   0.671   6.543
 6841SOL     OW24316   2.842   1.573   7.286
 6841SOL    HW124317   2.822   1.617   7.198
 6841SOL    HW224318   2.881   1.482   7.270
 6842SOL     OW24319   3.721   1.518   7.191
 6842SOL    HW124320   3.735   1.545   7.096
 6842SOL    HW224321   3.804   1.540   7.244
 6843SOL     OW24322   2.212   0.898   7.390
 6843SOL    HW124323   2.288   0.942   7.438
 6843SOL    HW224324   2.247   0.851   7.308
 6844SOL     OW24325   3.165   0.838   5.628
 6844SOL    HW124326   3.199   0.745   5.643
 6844SOL    HW224327   3.183   0.865   5.533
 6845SOL     OW24328   2.930   1.333   6.435
 6845SOL    HW124329   2.937   1.249   6.380
 6845SOL    HW224330   2.992   1.402   6.399
 6846SOL     OW24331   2.201   0.509   6.592
 6846SOL    HW124332   2.149   0.426   6.575
 6846SOL    HW224333   2.278   0.514   6.528
 6847SOL     OW24334   3.000   0.380   7.264
 6847SOL    HW124335   2.955   0.443   7.328
 6847SOL    HW224336   3.093   0.411   7.247
 6848SOL     OW24337   3.022   0.207   7.063
 6848SOL    HW124338   3.022   0.271   7.140
 6848SOL    HW224339   3.050   0.255   6.980
 6849SOL     OW24340   1.870   1.326   5.786
 6849SOL    HW124341   1.777   1.347   5.755
 6849SOL    HW224342   1.880   1.227   5.799
 6850SOL     OW24343   1.950   1.801   6.513
 6850SOL    HW124344   1.908   1.715   6.486
 6850SOL    HW224345   2.044   1.804   6.479
 6851SOL     OW24346   2.366   1.568   6.496
 6851SOL    HW124347   2.432   1.642   6.505
 6851SOL    HW224348   2.410   1.489   6.454
 6852SOL     OW24349   2.864   0.796   6.824
 6852SOL    HW124350   2.905   0.764   6.910
 6852SOL    HW224351   2.768   0.769   6.821
 6853SOL     OW24352   3.231   0.950   7.246
 6853SOL    HW124353   3.270   1.039   7.266
 6853SOL    HW224354   3.241   0.930   7.149
 6854SOL     OW24355   2.677   0.572   5.911
 6854SOL    HW124356   2.684   0.483   5.865
 6854SOL    HW224357   2.583   0.606   5.903
 6855SOL     OW24358   3.519   0.604   6.792
 6855SOL    HW124359   3.481   0.535   6.854
 6855SOL    HW224360   3.601   0.568   6.748
 6856SOL     OW24361   2.114   1.564   7.330
 6856SOL    HW124362   2.084   1.621   7.406
 6856SOL    HW224363   2.107   1.467   7.356
 6857SOL     OW24364   2.533   0.464   6.855
 6857SOL    HW124365   2.499   0.375   6.825
 6857SOL    HW224366   2.559   0.518   6.775
 6858SOL     OW24367   2.792   1.678   7.051
 6858SOL    HW124368   2.768   1.660   6.956
 6858SOL    HW224369   2.822   1.772   7.061
 6859SOL     OW24370   2.335   0.500   5.777
 6859SOL    HW124371   2.396   0.580   5.781
 6859SOL    HW224372   2.240   0.531   5.784
 6860SOL     OW24373   2.021   1.137   7.052
 6860SOL    HW124374   2.043   1.076   7.128
 6860SOL    HW224375   2.031   1.088   6.966
 6861SOL     OW24376   3.209   1.059   6.820
 6861SOL    HW124377   3.233   0.996   6.746
 6861SOL    HW224378   3.119   1.099   6.802
 6862SOL     OW24379   3.164   0.855   5.895
 6862SOL    HW124380   3.078   0.824   5.937
 6862SOL    HW224381   3.160   0.841   5.796
 6863SOL     OW24382   1.945   1.258   6.608
 6863SOL    HW124383   1.940   1.257   6.708
 6863SOL    HW224384   1.862   1.217   6.570
 6864SOL     OW24385   2.550   1.662   7.302
 6864SOL    HW124386   2.494   1.743   7.311
 6864SOL    HW224387   2.602   1.666   7.216
 6865SOL     OW24388   3.588   0.135   6.109
 6865SOL    HW124389   3.661   0.118   6.042
 6865SOL    HW224390   3.557   0.048   6.147
 6866SOL     OW24391   3.250   1.573   6.063
 6866SOL    HW124392   3.317   1.585   5.989
 6866SOL    HW224393   3.210   1.662   6.086
 6867SOL     OW24394   3.142   0.927   6.258
 6867SOL    HW124395   3.202   0.846   6.260
 6867SOL    HW224396   3.182   0.996   6.198
 6868SOL     OW24397   2.692   1.273   7.008
 6868SOL    HW124398   2.687   1.306   7.103
 6868SOL    HW224399   2.606   1.292   6.962
 6869SOL     OW24400   2.534   1.616   5.740
 6869SOL    HW124401   2.543   1.626   5.641
 6869SOL    HW224402   2.494   1.527   5.761
 6870SOL     OW24403   3.703   0.175   6.549
 6870SOL    HW124404   3.742   0.090   6.513
 6870SOL    HW224405   3.605   0.177   6.530
 6871SOL     OW24406   3.056   1.612   5.617
 6871SOL    HW124407   3.062   1.519   5.654
 6871SOL    HW224408   2.997   1.612   5.537
 6872SOL     OW24409   2.684   1.002   6.958
 6872SOL    HW124410   2.724   1.001   6.866
 6872SOL    HW224411   2.694   1.094   6.998
 6873SOL     OW24412   2.778   0.910   5.877
 6873SOL    HW124413   2.841   0.948   5.809
 6873SOL    HW224414   2.818   0.827   5.916
 6874SOL     OW24415   3.366   1.607   5.630
 6874SOL    HW124416   3.274   1.644   5.637
 6874SOL    HW224417   3.404   1.627   5.540
 6875SOL     OW24418   2.234   1.288   7.076
 6875SOL    HW124419   2.221   1.381   7.042
 6875SOL    HW224420   2.150   1.236   7.063
 6876SOL     OW24421   3.476   1.292   6.875
 6876SOL    HW124422   3.536   1.295   6.955
 6876SOL    HW224423   3.401   1.356   6.888
 6877SOL     OW24424   2.901   1.098   6.282
 6877SOL    HW124425   2.831   1.051   6.336
 6877SOL    HW224426   2.960   1.030   6.239
 6878SOL     OW24427   2.876   0.236   6.557
 6878SOL    HW124428   2.868   0.200   6.464
 6878SOL    HW224429   2.874   0.160   6.622
 6879SOL     OW24430   2.452   1.487   6.077
 6879SOL    HW124431   2.494   1.429   6.007
 6879SOL    HW224432   2.408   1.566   6.033
 6880SOL     OW24433   3.571   0.385   6.967
 6880SOL    HW124434   3.644   0.454   6.971
 6880SOL    HW224435   3.599   0.310   6.908
 6881SOL     OW24436   2.117   1.348   5.876
 6881SOL    HW124437   2.021   1.349   5.849
 6881SOL    HW224438   2.129   1.401   5.960
 6882SOL     OW24439   1.967   1.013   7.312
 6882SOL    HW124440   1.890   0.980   7.366
 6882SOL    HW224441   2.052   0.983   7.354
 6883SOL     OW24442   2.534   0.203   7.075
 6883SOL    HW124443   2.624   0.187   7.035
 6883SOL    HW224444   2.542   0.208   7.174
 6884SOL     OW24445   1.937   0.345   5.619
 6884SOL    HW124446   1.845   0.317   5.590
 6884SOL    HW224447   1.968   0.422   5.563
 6885SOL     OW24448   3.302   0.856   6.984
 6885SOL    HW124449   3.245   0.908   6.921
 6885SOL    HW224450   3.398   0.868   6.960
 6886SOL     OW24451   1.934   0.166   5.904
 6886SOL    HW124452   1.917   0.249   5.850
 6886SOL    HW224453   2.024   0.129   5.882
 6887SOL     OW24454   3.045   1.335   5.705
 6887SOL    HW124455   2.946   1.324   5.707
 6887SOL    HW224456   3.079   1.350   5.798
 6888SOL     OW24457   2.475   0.842   7.017
 6888SOL    HW124458   2.531   0.923   7.000
 6888SOL    HW224459   2.534   0.762   7.020
 6889SOL     OW24460   2.578   0.565   7.294
 6889SOL    HW124461   2.597   0.630   7.368
 6889SOL    HW224462   2.638   0.485   7.303
 6890SOL     OW24463   3.312   1.220   7.219
 6890SOL    HW124464   3.303   1.210   7.318
 6890SOL    HW224465   3.408   1.213   7.193
 6891SOL     OW24466   2.252   1.741   7.146
 6891SOL    HW124467   2.161   1.782   7.144
 6891SOL    HW224468   2.245   1.647   7.178
 6892SOL     OW24469   3.536   0.883   6.840
 6892SOL    HW124470   3.509   0.794   6.803
 6892SOL    HW224471   3.537   0.951   6.767
 6893SOL     OW24472   3.087   0.325   6.035
 6893SOL    HW124473   3.152   0.251   6.024
 6893SOL    HW224474   3.107   0.375   6.119
 6894SOL     OW24475   2.456   0.745   6.238
 6894SOL    HW124476   2.506   0.830   6.219
 6894SOL    HW224477   2.368   0.747   6.190
 6895SOL     OW24478   3.639   0.342   7.228
 6895SOL    HW124479   3.622   0.373   7.134
 6895SOL    HW224480   3.555   0.305   7.266
 6896SOL     OW24481   3.592   0.934   7.103
 6896SOL    HW124482   3.630   1.025   7.118
 6896SOL    HW224483   3.584   0.917   7.004
 6897SOL     OW24484   2.721   1.374   5.602
 6897SOL    HW124485   2.675   1.389   5.690
 6897SOL    HW224486   2.765   1.459   5.572
 6898SOL     OW24487   2.523   1.790   6.539
 6898SOL    HW124488   2.477   1.878   6.526
 6898SOL    HW224489   2.622   1.802   6.532
 6899SOL     OW24490   2.721   0.956   6.447
 6899SOL    HW124491   2.775   0.887   6.495
 6899SOL    HW224492   2.689   1.025   6.513
 6900SOL     OW24493   2.945   0.984   5.673
 6900SOL    HW124494   2.922   1.037   5.591
 6900SOL    HW224495   3.026   0.928   5.654
 6901SOL     OW24496   3.723   1.569   6.437
 6901SOL    HW124497   3.652   1.557   6.367
 6901SOL    HW224498   3.724   1.490   6.497
 6902SOL     OW24499   2.083   1.314   7.430
 6902SOL    HW124500   2.018   1.241   7.409
 6902SOL    HW224501   2.087   1.328   7.528
 6903SOL     OW24502   1.941   1.240   6.239
 6903SOL    HW124503   1.940   1.193   6.327
 6903SOL    HW224504   2.023   1.212   6.188
 6904SOL     OW24505   2.534   1.391   7.210
 6904SOL    HW124506   2.456   1.341   7.248
 6904SOL    HW224507   2.531   1.486   7.241
 6905SOL     OW24508   3.686   0.192   6.813
 6905SOL    HW124509   3.682   0.102   6.857
 6905SOL    HW224510   3.689   0.181   6.714
 6906SOL     OW24511   3.567   1.487   6.690
 6906SOL    HW124512   3.474   1.462   6.663
 6906SOL    HW224513   3.593   1.437   6.772
 6907SOL     OW24514   2.179   0.547   6.866
 6907SOL    HW124515   2.217   0.488   6.938
 6907SOL    HW224516   2.219   0.521   6.778
 6908SOL     OW24517   2.674   1.586   6.273
 6908SOL    HW124518   2.706   1.596   6.179
 6908SOL    HW224519   2.595   1.524   6.275
 6909SOL     OW24520   3.286   0.214   6.698
 6909SOL    HW124521   3.338   0.149   6.753
 6909SOL    HW224522   3.237   0.277   6.759
 6910SOL     OW24523   2.863   0.034   6.740
 6910SOL    HW124524   2.800  -0.038   6.709
 6910SOL    HW224525   2.956  -0.002   6.740
 6911SOL     OW24526   2.632   1.330   5.887
 6911SOL    HW124527   2.586   1.243   5.904
 6911SOL    HW224528   2.723   1.327   5.928
 6912SOL     OW24529   2.480   1.567   6.870
 6912SOL    HW124530   2.475   1.649   6.927
 6912SOL    HW224531   2.569   1.564   6.825
 6913SOL     OW24532   3.214   0.052   5.754
 6913SOL    HW124533   3.249   0.011   5.670
 6913SOL    HW224534   3.124   0.014   5.774
 6914SOL     OW24535   3.162   0.453   6.277
 6914SOL    HW124536   3.103   0.533   6.281
 6914SOL    HW224537   3.177   0.418   6.370
 6915SOL     OW24538   3.455   0.221   6.468
 6915SOL    HW124539   3.371   0.220   6.522
 6915SOL    HW224540   3.457   0.304   6.412
 6916SOL     OW24541   1.901   1.077   5.886
 6916SOL    HW124542   2.000   1.066   5.877
 6916SOL    HW224543   1.861   0.991   5.918
 6917SOL     OW24544   2.737   1.646   5.923
 6917SOL    HW124545   2.660   1.611   5.869
 6917SOL    HW224546   2.705   1.717   5.985
 6918SOL     OW24547   2.092   0.628   7.561
 6918SOL    HW124548   1.999   0.626   7.598
 6918SOL    HW224549   2.093   0.589   7.469
 6919SOL     OW24550   2.087   0.275   8.444
 6919SOL    HW124551   2.122   0.258   8.536
 6919SOL    HW224552   1.999   0.230   8.432
 6920SOL     OW24553   1.881   0.368   8.095
 6920SOL    HW124554   1.799   0.411   8.134
 6920SOL    HW224555   1.853   0.295   8.032
 6921SOL     OW24556   3.417   1.511   8.151
 6921SOL    HW124557   3.360   1.495   8.232
 6921SOL    HW224558   3.358   1.521   8.071
 6922SOL     OW24559   2.997   0.703   8.165
 6922SOL    HW124560   3.054   0.781   8.140
 6922SOL    HW224561   2.937   0.729   8.241
 6923SOL     OW24562   3.617   0.607   7.679
 6923SOL    HW124563   3.605   0.594   7.580
 6923SOL    HW224564   3.587   0.526   7.728
 6924SOL     OW24565   2.712   0.798   9.271
 6924SOL    HW124566   2.708   0.874   9.336
 6924SOL    HW224567   2.734   0.834   9.180
 6925SOL     OW24568   2.547   1.012   8.113
 6925SOL    HW124569   2.616   0.996   8.183
 6925SOL    HW224570   2.474   1.069   8.151
 6926SOL     OW24571   2.548   1.161   9.251
 6926SOL    HW124572   2.608   1.240   9.265
 6926SOL    HW224573   2.462   1.192   9.210
 6927SOL     OW24574   3.322   1.505   8.787
 6927SOL    HW124575   3.346   1.599   8.813
 6927SOL    HW224576   3.306   1.451   8.869
 6928SOL     OW24577   2.300   0.392   8.947
 6928SOL    HW124578   2.382   0.336   8.956
 6928SOL    HW224579   2.219   0.334   8.951
 6929SOL     OW24580   3.465   0.447   8.185
 6929SOL    HW124581   3.391   0.493   8.135
 6929SOL    HW224582   3.516   0.515   8.238
 6930SOL     OW24583   2.093   1.713   7.931
 6930SOL    HW124584   2.127   1.790   7.985
 6930SOL    HW224585   2.137   1.713   7.841
 6931SOL     OW24586   2.989   1.341   9.138
 6931SOL    HW124587   3.036   1.341   9.226
 6931SOL    HW224588   2.941   1.254   9.127
 6932SOL     OW24589   2.092   1.434   7.986
 6932SOL    HW124590   2.066   1.530   7.986
 6932SOL    HW224591   2.021   1.380   8.031
 6933SOL     OW24592   2.482   1.786   8.887
 6933SOL    HW124593   2.390   1.769   8.922
 6933SOL    HW224594   2.510   1.878   8.913
 6934SOL     OW24595   2.468   0.964   7.571
 6934SOL    HW124596   2.475   1.048   7.517
 6934SOL    HW224597   2.514   0.977   7.659
 6935SOL     OW24598   3.456   0.114   8.928
 6935SOL    HW124599   3.438   0.181   8.856
 6935SOL    HW224600   3.453   0.160   9.017
 6936SOL     OW24601   1.984   0.643   8.011
 6936SOL    HW124602   1.939   0.555   8.028
 6936SOL    HW224603   1.983   0.697   8.095
 6937SOL     OW24604   3.704   1.767   7.807
 6937SOL    HW124605   3.758   1.738   7.887
 6937SOL    HW224606   3.734   1.857   7.778
 6938SOL     OW24607   1.889   1.596   7.565
 6938SOL    HW124608   1.870   1.500   7.586
 6938SOL    HW224609   1.856   1.654   7.640
 6939SOL     OW24610   3.551   0.922   8.060
 6939SOL    HW124611   3.646   0.893   8.068
 6939SOL    HW224612   3.543   0.987   7.985
 6940SOL     OW24613   3.503   1.108   7.880
 6940SOL    HW124614   3.589   1.110   7.828
 6940SOL    HW224615   3.517   1.155   7.968
 6941SOL     OW24616   1.975   0.737   9.045
 6941SOL    HW124617   2.063   0.724   9.090
 6941SOL    HW224618   1.962   0.834   9.023
 6942SOL     OW24619   2.475   1.365   8.174
 6942SOL    HW124620   2.426   1.278   8.183
 6942SOL    HW224621   2.452   1.408   8.087
 6943SOL     OW24622   3.155   1.228   8.871
 6943SOL    HW124623   3.192   1.155   8.813
 6943SOL    HW224624   3.207   1.233   8.956
 6944SOL     OW24625   2.671   0.004   7.950
 6944SOL    HW124626   2.711   0.095   7.941
 6944SOL    HW224627   2.571   0.012   7.956
 6945SOL     OW24628   3.387   0.999   7.638
 6945SOL    HW124629   3.324   0.923   7.651
 6945SOL    HW224630   3.435   1.017   7.724
 6946SOL     OW24631   3.049   1.792   9.064
 6946SOL    HW124632   3.073   1.852   8.988
 6946SOL    HW224633   3.056   1.697   9.034
 6947SOL     OW24634   2.179   0.251   9.249
 6947SOL    HW124635   2.250   0.322   9.255
 6947SOL    HW224636   2.091   0.290   9.277
 6948SOL     OW24637   3.328   1.417   8.401
 6948SOL    HW124638   3.269   1.423   8.481
 6948SOL    HW224639   3.313   1.329   8.355
 6949SOL     OW24640   3.529   1.714   8.020
 6949SOL    HW124641   3.488   1.691   7.932
 6949SOL    HW224642   3.511   1.640   8.085
 6950SOL     OW24643   2.460   0.729   7.718
 6950SOL    HW124644   2.484   0.798   7.650
 6950SOL    HW224645   2.382   0.762   7.772
 6951SOL     OW24646   3.143   0.345   8.392
 6951SOL    HW124647   3.057   0.295   8.379
 6951SOL    HW224648   3.205   0.291   8.448
 6952SOL     OW24649   3.438   1.662   7.755
 6952SOL    HW124650   3.527   1.708   7.758
 6952SOL    HW224651   3.417   1.638   7.660
 6953SOL     OW24652   2.669   0.605   8.913
 6953SOL    HW124653   2.622   0.602   9.002
 6953SOL    HW224654   2.618   0.550   8.847
 6954SOL     OW24655   2.835   0.890   9.020
 6954SOL    HW124656   2.881   0.806   8.991
 6954SOL    HW224657   2.779   0.924   8.945
 6955SOL     OW24658   2.853   0.410   8.690
 6955SOL    HW124659   2.776   0.444   8.744
 6955SOL    HW224660   2.819   0.359   8.611
 6956SOL     OW24661   2.903   0.701   7.877
 6956SOL    HW124662   2.929   0.697   7.973
 6956SOL    HW224663   2.818   0.650   7.863
 6957SOL     OW24664   2.727   0.348   7.643
 6957SOL    HW124665   2.786   0.411   7.594
 6957SOL    HW224666   2.746   0.254   7.614
 6958SOL     OW24667   3.224   1.144   7.993
 6958SOL    HW124668   3.307   1.115   7.945
 6958SOL    HW224669   3.175   1.211   7.937
 6959SOL     OW24670   2.412   0.196   8.333
 6959SOL    HW124671   2.407   0.191   8.433
 6959SOL    HW224672   2.414   0.292   8.304
 6960SOL     OW24673   2.870   1.456   7.925
 6960SOL    HW124674   2.824   1.528   7.873
 6960SOL    HW224675   2.866   1.476   8.023
 6961SOL     OW24676   2.213   1.801   8.301
 6961SOL    HW124677   2.263   1.715   8.307
 6961SOL    HW224678   2.278   1.878   8.298
 6962SOL     OW24679   3.657   1.066   8.321
 6962SOL    HW124680   3.595   1.051   8.245
 6962SOL    HW224681   3.605   1.077   8.406
 6963SOL     OW24682   3.089   1.550   8.954
 6963SOL    HW124683   3.095   1.473   9.018
 6963SOL    HW224684   3.037   1.524   8.874
 6964SOL     OW24685   2.183   0.943   7.690
 6964SOL    HW124686   2.265   0.982   7.648
 6964SOL    HW224687   2.156   0.861   7.641
 6965SOL     OW24688   3.320   0.735   8.176
 6965SOL    HW124689   3.315   0.670   8.251
 6965SOL    HW224690   3.400   0.794   8.189
 6966SOL     OW24691   2.323   1.266   9.175
 6966SOL    HW124692   2.273   1.267   9.089
 6966SOL    HW224693   2.260   1.248   9.251
 6967SOL     OW24694   2.973   1.776   7.685
 6967SOL    HW124695   2.913   1.714   7.735
 6967SOL    HW224696   3.004   1.732   7.600
 6968SOL     OW24697   2.064   0.285   8.946
 6968SOL    HW124698   1.984   0.345   8.933
 6968SOL    HW224699   2.054   0.236   9.032
 6969SOL     OW24700   3.494   1.377   7.529
 6969SOL    HW124701   3.462   1.471   7.519
 6969SOL    HW224702   3.418   1.314   7.517
 6970SOL     OW24703   2.326   1.743   7.771
 6970SOL    HW124704   2.359   1.782   7.857
 6970SOL    HW224705   2.402   1.736   7.706
 6971SOL     OW24706   3.262   0.107   7.874
 6971SOL    HW124707   3.238   0.070   7.784
 6971SOL    HW224708   3.361   0.123   7.878
 6972SOL     OW24709   2.244   0.700   7.928
 6972SOL    HW124710   2.289   0.610   7.925
 6972SOL    HW224711   2.150   0.689   7.961
 6973SOL     OW24712   3.409   0.222   9.177
 6973SOL    HW124713   3.404   0.259   9.269
 6973SOL    HW224714   3.337   0.153   9.165
 6974SOL     OW24715   2.476   0.122   7.565
 6974SOL    HW124716   2.574   0.100   7.572
 6974SOL    HW224717   2.445   0.105   7.472
 6975SOL     OW24718   2.643   0.264   9.197
 6975SOL    HW124719   2.710   0.203   9.240
 6975SOL    HW224720   2.570   0.283   9.262
 6976SOL     OW24721   2.750   1.514   8.643
 6976SOL    HW124722   2.727   1.489   8.549
 6976SOL    HW224723   2.811   1.445   8.682
 6977SOL     OW24724   3.213   0.590   8.881
 6977SOL    HW124725   3.241   0.547   8.966
 6977SOL    HW224726   3.238   0.686   8.882
 6978SOL     OW24727   2.665   1.402   8.372
 6978SOL    HW124728   2.755   1.416   8.330
 6978SOL    HW224729   2.594   1.404   8.301
 6979SOL     OW24730   2.784   0.503   8.347
 6979SOL    HW124731   2.759   0.494   8.251
 6979SOL    HW224732   2.832   0.421   8.378
 6980SOL     OW24733   2.401   0.064   7.960
 6980SOL    HW124734   2.320   0.065   8.018
 6980SOL    HW224735   2.404   0.147   7.905
 6981SOL     OW24736   3.296   1.188   7.489
 6981SOL    HW124737   3.328   1.112   7.546
 6981SOL    HW224738   3.204   1.215   7.519
 6982SOL     OW24739   2.159   0.035   7.619
 6982SOL    HW124740   2.208   0.119   7.598
 6982SOL    HW224741   2.221  -0.030   7.664
 6983SOL     OW24742   2.797   0.236   7.928
 6983SOL    HW124743   2.749   0.277   7.850
 6983SOL    HW224744   2.896   0.234   7.909
 6984SOL     OW24745   2.938   0.683   8.912
 6984SOL    HW124746   2.858   0.622   8.915
 6984SOL    HW224747   3.019   0.630   8.888
 6985SOL     OW24748   3.089   1.570   8.241
 6985SOL    HW124749   3.110   1.644   8.176
 6985SOL    HW224750   3.157   1.570   8.314
 6986SOL     OW24751   2.321   1.152   8.189
 6986SOL    HW124752   2.250   1.125   8.254
 6986SOL    HW224753   2.295   1.124   8.096
 6987SOL     OW24754   3.133   1.797   8.039
 6987SOL    HW124755   3.177   1.861   7.975
 6987SOL    HW224756   3.083   1.849   8.109
 6988SOL     OW24757   2.894   0.549   7.464
 6988SOL    HW124758   2.853   0.631   7.425
 6988SOL    HW224759   2.958   0.575   7.537
 6989SOL     OW24760   1.940   0.556   8.834
 6989SOL    HW124761   2.032   0.555   8.793
 6989SOL    HW224762   1.934   0.630   8.901
 6990SOL     OW24763   2.423   0.222   8.595
 6990SOL    HW124764   2.461   0.138   8.632
 6990SOL    HW224765   2.335   0.241   8.639
 6991SOL     OW24766   2.728   0.454   8.090
 6991SOL    HW124767   2.696   0.526   8.028
 6991SOL    HW224768   2.752   0.373   8.037
 6992SOL     OW24769   2.879   0.039   8.201
 6992SOL    HW124770   2.807   0.044   8.132
 6992SOL    HW224771   2.855  -0.030   8.270
 6993SOL     OW24772   3.291   1.173   8.315
 6993SOL    HW124773   3.236   1.089   8.308
 6993SOL    HW224774   3.317   1.202   8.223
 6994SOL     OW24775   3.328   0.590   8.440
 6994SOL    HW124776   3.298   0.495   8.447
 6994SOL    HW224777   3.401   0.606   8.506
 6995SOL     OW24778   3.719   0.833   7.825
 6995SOL    HW124779   3.761   0.769   7.889
 6995SOL    HW224780   3.681   0.782   7.747
 6996SOL     OW24781   2.350   1.385   7.622
 6996SOL    HW124782   2.263   1.370   7.669
 6996SOL    HW224783   2.333   1.411   7.527
 6997SOL     OW24784   3.526   1.280   8.105
 6997SOL    HW124785   3.625   1.288   8.119
 6997SOL    HW224786   3.481   1.364   8.136
 6998SOL     OW24787   3.252   0.575   7.526
 6998SOL    HW124788   3.198   0.554   7.607
 6998SOL    HW224789   3.343   0.534   7.535
 6999SOL     OW24790   2.389   0.256   7.776
 6999SOL    HW124791   2.416   0.197   7.701
 6999SOL    HW224792   2.389   0.351   7.745
 7000SOL     OW24793   3.616   1.223   9.036
 7000SOL    HW124794   3.707   1.184   9.023
 7000SOL    HW224795   3.624   1.319   9.060
 7001SOL     OW24796   2.926   1.347   8.788
 7001SOL    HW124797   2.846   1.324   8.843
 7001SOL    HW224798   3.009   1.321   8.837
 7002SOL     OW24799   3.454   1.629   9.073
 7002SOL    HW124800   3.481   1.663   8.983
 7002SOL    HW224801   3.533   1.591   9.119
 7003SOL     OW24802   2.973   1.195   8.548
 7003SOL    HW124803   2.933   1.239   8.629
 7003SOL    HW224804   2.932   1.232   8.465
 7004SOL     OW24805   3.500   1.099   8.527
 7004SOL    HW124806   3.505   1.180   8.586
 7004SOL    HW224807   3.414   1.101   8.476
 7005SOL     OW24808   2.777   0.089   8.850
 7005SOL    HW124809   2.802   0.069   8.755
 7005SOL    HW224810   2.849   0.145   8.892
 7006SOL     OW24811   2.842   1.116   9.167
 7006SOL    HW124812   2.743   1.122   9.177
 7006SOL    HW224813   2.865   1.036   9.111
 7007SOL     OW24814   2.567   1.050   7.816
 7007SOL    HW124815   2.553   1.057   7.915
 7007SOL    HW224816   2.651   0.999   7.798
 7008SOL     OW24817   2.272   0.813   8.699
 7008SOL    HW124818   2.358   0.825   8.749
 7008SOL    HW224819   2.230   0.726   8.726
 7009SOL     OW24820   3.136   0.386   8.710
 7009SOL    HW124821   3.157   0.460   8.774
 7009SOL    HW224822   3.047   0.403   8.667
 7010SOL     OW24823   2.229   1.100   7.949
 7010SOL    HW124824   2.222   1.183   7.893
 7010SOL    HW224825   2.233   1.020   7.889
 7011SOL     OW24826   2.428   0.537   8.313
 7011SOL    HW124827   2.440   0.603   8.239
 7011SOL    HW224828   2.474   0.571   8.396
 7012SOL     OW24829   3.114   1.348   7.836
 7012SOL    HW124830   3.164   1.425   7.876
 7012SOL    HW224831   3.019   1.350   7.868
 7013SOL     OW24832   3.134   1.445   8.590
 7013SOL    HW124833   3.181   1.458   8.677
 7013SOL    HW224834   3.068   1.371   8.599
 7014SOL     OW24835   3.444   0.639   7.920
 7014SOL    HW124836   3.413   0.700   7.993
 7014SOL    HW224837   3.494   0.691   7.851
 7015SOL     OW24838   2.264   0.751   9.046
 7015SOL    HW124839   2.332   0.806   8.999
 7015SOL    HW224840   2.304   0.663   9.073
 7016SOL     OW24841   2.875   0.105   9.218
 7016SOL    HW124842   2.881   0.190   9.166
 7016SOL    HW224843   2.907   0.029   9.161
 7017SOL     OW24844   2.366   0.050   9.188
 7017SOL    HW124845   2.324  -0.007   9.118
 7017SOL    HW224846   2.300   0.119   9.220
 7018SOL     OW24847   3.222   0.862   8.493
 7018SOL    HW124848   3.147   0.862   8.427
 7018SOL    HW224849   3.259   0.770   8.502
 7019SOL     OW24850   3.071   0.525   7.723
 7019SOL    HW124851   3.084   0.441   7.777
 7019SOL    HW224852   3.042   0.599   7.783
 7020SOL     OW24853   2.169   0.213   8.679
 7020SOL    HW124854   2.146   0.250   8.769
 7020SOL    HW224855   2.139   0.118   8.673
 7021SOL     OW24856   1.899   1.310   8.730
 7021SOL    HW124857   1.952   1.261   8.798
 7021SOL    HW224858   1.921   1.408   8.735
 7022SOL     OW24859   2.169   0.063   8.066
 7022SOL    HW124860   2.158   0.157   8.099
 7022SOL    HW224861   2.164   0.000   8.143
 7023SOL     OW24862   3.484   0.367   7.822
 7023SOL    HW124863   3.486   0.291   7.886
 7023SOL    HW224864   3.436   0.444   7.862
 7024SOL     OW24865   2.885   0.766   8.414
 7024SOL    HW124866   2.900   0.787   8.510
 7024SOL    HW224867   2.855   0.671   8.405
 7025SOL     OW24868   2.842   1.573   9.148
 7025SOL    HW124869   2.822   1.617   9.060
 7025SOL    HW224870   2.881   1.482   9.132
 7026SOL     OW24871   3.721   1.518   9.053
 7026SOL    HW124872   3.735   1.545   8.958
 7026SOL    HW224873   3.804   1.540   9.106
 7027SOL     OW24874   2.212   0.898   9.252
 7027SOL    HW124875   2.288   0.942   9.300
 7027SOL    HW224876   2.247   0.851   9.170
 7028SOL     OW24877   3.402   0.274   7.573
 7028SOL    HW124878   3.341   0.199   7.596
 7028SOL    HW224879   3.424   0.326   7.656
 7029SOL     OW24880   3.165   0.838   7.490
 7029SOL    HW124881   3.199   0.745   7.505
 7029SOL    HW224882   3.183   0.865   7.395
 7030SOL     OW24883   2.930   1.333   8.297
 7030SOL    HW124884   2.937   1.249   8.242
 7030SOL    HW224885   2.992   1.402   8.261
 7031SOL     OW24886   2.201   0.509   8.454
 7031SOL    HW124887   2.149   0.426   8.437
 7031SOL    HW224888   2.278   0.514   8.390
 7032SOL     OW24889   3.000   0.380   9.126
 7032SOL    HW124890   2.955   0.443   9.190
 7032SOL    HW224891   3.093   0.411   9.109
 7033SOL     OW24892   3.022   0.207   8.925
 7033SOL    HW124893   3.022   0.271   9.002
 7033SOL    HW224894   3.050   0.255   8.842
 7034SOL     OW24895   1.870   1.326   7.648
 7034SOL    HW124896   1.777   1.347   7.617
 7034SOL    HW224897   1.880   1.227   7.661
 7035SOL     OW24898   1.950   1.801   8.375
 7035SOL    HW124899   1.908   1.715   8.348
 7035SOL    HW224900   2.044   1.804   8.341
 7036SOL     OW24901   2.366   1.568   8.358
 7036SOL    HW124902   2.432   1.642   8.367
 7036SOL    HW224903   2.410   1.489   8.316
 7037SOL     OW24904   1.902   0.544   8.562
 7037SOL    HW124905   1.987   0.511   8.521
 7037SOL    HW224906   1.915   0.559   8.660
 7038SOL     OW24907   2.051   0.520   9.170
 7038SOL    HW124908   2.110   0.480   9.100
 7038SOL    HW224909   1.993   0.591   9.129
 7039SOL     OW24910   2.677   0.572   7.773
 7039SOL    HW124911   2.684   0.483   7.727
 7039SOL    HW224912   2.583   0.606   7.765
 7040SOL     OW24913   3.519   0.604   8.654
 7040SOL    HW124914   3.481   0.535   8.716
 7040SOL    HW224915   3.601   0.568   8.610
 7041SOL     OW24916   2.114   1.564   9.192
 7041SOL    HW124917   2.084   1.621   9.268
 7041SOL    HW224918   2.107   1.467   9.218
 7042SOL     OW24919   2.533   0.464   8.717
 7042SOL    HW124920   2.499   0.375   8.687
 7042SOL    HW224921   2.559   0.518   8.637
 7043SOL     OW24922   2.792   1.678   8.913
 7043SOL    HW124923   2.768   1.660   8.818
 7043SOL    HW224924   2.822   1.772   8.923
 7044SOL     OW24925   2.335   0.500   7.639
 7044SOL    HW124926   2.396   0.580   7.643
 7044SOL    HW224927   2.240   0.531   7.646
 7045SOL     OW24928   2.021   1.137   8.914
 7045SOL    HW124929   2.043   1.076   8.990
 7045SOL    HW224930   2.031   1.088   8.828
 7046SOL     OW24931   3.209   1.059   8.682
 7046SOL    HW124932   3.233   0.996   8.608
 7046SOL    HW224933   3.119   1.099   8.664
 7047SOL     OW24934   3.164   0.855   7.757
 7047SOL    HW124935   3.078   0.824   7.799
 7047SOL    HW224936   3.160   0.841   7.658
 7048SOL     OW24937   3.621   1.747   8.602
 7048SOL    HW124938   3.682   1.777   8.529
 7048SOL    HW224939   3.583   1.658   8.580
 7049SOL     OW24940   3.114   1.731   8.576
 7049SOL    HW124941   3.198   1.736   8.522
 7049SOL    HW224942   3.091   1.635   8.594
 7050SOL     OW24943   2.550   1.662   9.164
 7050SOL    HW124944   2.494   1.743   9.173
 7050SOL    HW224945   2.602   1.666   9.078
 7051SOL     OW24946   3.588   0.135   7.971
 7051SOL    HW124947   3.661   0.118   7.904
 7051SOL    HW224948   3.557   0.048   8.009
 7052SOL     OW24949   3.250   1.573   7.925
 7052SOL    HW124950   3.317   1.585   7.851
 7052SOL    HW224951   3.210   1.662   7.948
 7053SOL     OW24952   1.992   1.794   9.299
 7053SOL    HW124953   1.951   1.720   9.352
 7053SOL    HW224954   2.056   1.845   9.357
 7054SOL     OW24955   3.142   0.927   8.120
 7054SOL    HW124956   3.202   0.846   8.122
 7054SOL    HW224957   3.182   0.996   8.060
 7055SOL     OW24958   2.692   1.273   8.870
 7055SOL    HW124959   2.687   1.306   8.965
 7055SOL    HW224960   2.606   1.292   8.824
 7056SOL     OW24961   2.534   1.616   7.602
 7056SOL    HW124962   2.543   1.626   7.503
 7056SOL    HW224963   2.494   1.527   7.623
 7057SOL     OW24964   3.512   1.720   8.842
 7057SOL    HW124965   3.565   1.730   8.758
 7057SOL    HW224966   3.485   1.810   8.876
 7058SOL     OW24967   3.703   0.175   8.411
 7058SOL    HW124968   3.742   0.090   8.375
 7058SOL    HW224969   3.605   0.177   8.392
 7059SOL     OW24970   2.125   0.326   8.168
 7059SOL    HW124971   2.046   0.377   8.134
 7059SOL    HW224972   2.116   0.311   8.266
 7060SOL     OW24973   3.056   1.612   7.479
 7060SOL    HW124974   3.062   1.519   7.516
 7060SOL    HW224975   2.997   1.612   7.399
 7061SOL     OW24976   2.778   0.910   7.739
 7061SOL    HW124977   2.841   0.948   7.671
 7061SOL    HW224978   2.818   0.827   7.778
 7062SOL     OW24979   3.366   1.607   7.492
 7062SOL    HW124980   3.274   1.644   7.499
 7062SOL    HW224981   3.404   1.627   7.402
 7063SOL     OW24982   2.234   1.288   8.938
 7063SOL    HW124983   2.221   1.381   8.904
 7063SOL    HW224984   2.150   1.236   8.925
 7064SOL     OW24985   3.476   1.292   8.737
 7064SOL    HW124986   3.536   1.295   8.817
 7064SOL    HW224987   3.401   1.356   8.750
 7065SOL     OW24988   2.901   1.098   8.144
 7065SOL    HW124989   2.831   1.051   8.198
 7065SOL    HW224990   2.960   1.030   8.101
 7066SOL     OW24991   2.876   0.236   8.419
 7066SOL    HW124992   2.868   0.200   8.326
 7066SOL    HW224993   2.874   0.160   8.484
 7067SOL     OW24994   2.452   1.487   7.939
 7067SOL    HW124995   2.494   1.429   7.869
 7067SOL    HW224996   2.408   1.566   7.895
 7068SOL     OW24997   3.571   0.385   8.829
 7068SOL    HW124998   3.644   0.454   8.833
 7068SOL    HW224999   3.599   0.310   8.770
 7069SOL     OW25000   2.117   1.348   7.738
 7069SOL    HW125001   2.021   1.349   7.711
 7069SOL    HW225002   2.129   1.401   7.822
 7070SOL     OW25003   1.967   1.013   9.174
 7070SOL    HW125004   1.890   0.980   9.228
 7070SOL    HW225005   2.052   0.983   9.216
 7071SOL     OW25006   2.534   0.203   8.937
 7071SOL    HW125007   2.624   0.187   8.897
 7071SOL    HW225008   2.542   0.208   9.036
 7072SOL     OW25009   3.302   0.856   8.846
 7072SOL    HW125010   3.245   0.908   8.783
 7072SOL    HW225011   3.398   0.868   8.822
 7073SOL     OW25012   1.934   0.166   7.766
 7073SOL    HW125013   1.917   0.249   7.712
 7073SOL    HW225014   2.024   0.129   7.744
 7074SOL     OW25015   3.045   1.335   7.567
 7074SOL    HW125016   2.946   1.324   7.569
 7074SOL    HW225017   3.079   1.350   7.660
 7075SOL     OW25018   2.475   0.842   8.879
 7075SOL    HW125019   2.531   0.923   8.862
 7075SOL    HW225020   2.534   0.762   8.882
 7076SOL     OW25021   3.355   1.767   8.407
 7076SOL    HW125022   3.388   1.831   8.338
 7076SOL    HW225023   3.421   1.761   8.482
 7077SOL     OW25024   2.578   0.565   9.156
 7077SOL    HW125025   2.597   0.630   9.230
 7077SOL    HW225026   2.638   0.485   9.165
 7078SOL     OW25027   3.312   1.220   9.081
 7078SOL    HW125028   3.303   1.210   9.180
 7078SOL    HW225029   3.408   1.213   9.055
 7079SOL     OW25030   2.252   1.741   9.008
 7079SOL    HW125031   2.161   1.782   9.006
 7079SOL    HW225032   2.245   1.647   9.040
 7080SOL     OW25033   3.536   0.883   8.702
 7080SOL    HW125034   3.509   0.794   8.665
 7080SOL    HW225035   3.537   0.951   8.629
 7081SOL     OW25036   3.087   0.325   7.897
 7081SOL    HW125037   3.152   0.251   7.886
 7081SOL    HW225038   3.107   0.375   7.981
 7082SOL     OW25039   2.456   0.745   8.100
 7082SOL    HW125040   2.506   0.830   8.081
 7082SOL    HW225041   2.368   0.747   8.052
 7083SOL     OW25042   3.639   0.342   9.090
 7083SOL    HW125043   3.622   0.373   8.996
 7083SOL    HW225044   3.555   0.305   9.128
 7084SOL     OW25045   3.592   0.934   8.965
 7084SOL    HW125046   3.630   1.025   8.980
 7084SOL    HW225047   3.584   0.917   8.866
 7085SOL     OW25048   2.721   1.374   7.464
 7085SOL    HW125049   2.675   1.389   7.552
 7085SOL    HW225050   2.765   1.459   7.434
 7086SOL     OW25051   2.945   0.984   7.535
 7086SOL    HW125052   2.922   1.037   7.453
 7086SOL    HW225053   3.026   0.928   7.516
 7087SOL     OW25054   3.723   1.569   8.299
 7087SOL    HW125055   3.652   1.557   8.229
 7087SOL    HW225056   3.724   1.490   8.359
 7088SOL     OW25057   2.083   1.314   9.292
 7088SOL    HW125058   2.018   1.241   9.271
 7088SOL    HW225059   2.087   1.328   9.390
 7089SOL     OW25060   2.534   1.391   9.072
 7089SOL    HW125061   2.456   1.341   9.110
 7089SOL    HW225062   2.531   1.486   9.103
 7090SOL     OW25063   3.686   0.192   8.675
 7090SOL    HW125064   3.682   0.102   8.719
 7090SOL    HW225065   3.689   0.181   8.576
 7091SOL     OW25066   2.290   0.424   7.968
 7091SOL    HW125067   2.320   0.352   7.906
 7091SOL    HW225068   2.251   0.384   8.051
 7092SOL     OW25069   3.567   1.487   8.552
 7092SOL    HW125070   3.474   1.462   8.525
 7092SOL    HW225071   3.593   1.437   8.634
 7093SOL     OW25072   2.179   0.547   8.728
 7093SOL    HW125073   2.217   0.488   8.800
 7093SOL    HW225074   2.219   0.521   8.640
 7094SOL     OW25075   2.674   1.586   8.135
 7094SOL    HW125076   2.706   1.596   8.041
 7094SOL    HW225077   2.595   1.524   8.137
 7095SOL     OW25078   3.286   0.214   8.560
 7095SOL    HW125079   3.338   0.149   8.615
 7095SOL    HW225080   3.237   0.277   8.621
 7096SOL     OW25081   2.863   0.034   8.602
 7096SOL    HW125082   2.800  -0.038   8.571
 7096SOL    HW225083   2.956  -0.002   8.602
 7097SOL     OW25084   2.632   1.330   7.749
 7097SOL    HW125085   2.586   1.243   7.766
 7097SOL    HW225086   2.723   1.327   7.790
 7098SOL     OW25087   2.480   1.567   8.732
 7098SOL    HW125088   2.475   1.649   8.789
 7098SOL    HW225089   2.569   1.564   8.687
 7099SOL     OW25090   3.214   0.052   7.616
 7099SOL    HW125091   3.249   0.011   7.532
 7099SOL    HW225092   3.124   0.014   7.636
 7100SOL     OW25093   3.162   0.453   8.139
 7100SOL    HW125094   3.103   0.533   8.143
 7100SOL    HW225095   3.177   0.418   8.232
 7101SOL     OW25096   3.455   0.221   8.330
 7101SOL    HW125097   3.371   0.220   8.384
 7101SOL    HW225098   3.457   0.304   8.274
 7102SOL     OW25099   1.901   1.077   7.748
 7102SOL    HW125100   2.000   1.066   7.739
 7102SOL    HW225101   1.861   0.991   7.780
 7103SOL     OW25102   2.737   1.646   7.785
 7103SOL    HW125103   2.660   1.611   7.731
 7103SOL    HW225104   2.705   1.717   7.847
 7104SOL     OW25105   2.092   0.628   9.423
 7104SOL    HW125106   1.999   0.626   9.460
 7104SOL    HW225107   2.093   0.589   9.331
 7105SOL     OW25108   3.617   0.607   9.541
 7105SOL    HW125109   3.605   0.594   9.442
 7105SOL    HW225110   3.587   0.526   9.590
 7106SOL     OW25111   2.093   1.713   9.793
 7106SOL    HW125112   2.127   1.790   9.847
 7106SOL    HW225113   2.137   1.713   9.703
 7107SOL     OW25114   2.468   0.964   9.433
 7107SOL    HW125115   2.475   1.048   9.379
 7107SOL    HW225116   2.514   0.977   9.521
 7108SOL     OW25117   1.984   0.643   9.873
 7108SOL    HW125118   1.939   0.555   9.890
 7108SOL    HW225119   1.983   0.697   9.957
 7109SOL     OW25120   3.704   1.767   9.669
 7109SOL    HW125121   3.758   1.738   9.749
 7109SOL    HW225122   3.734   1.857   9.640
 7110SOL     OW25123   1.889   1.596   9.427
 7110SOL    HW125124   1.870   1.500   9.448
 7110SOL    HW225125   1.856   1.654   9.502
 7111SOL     OW25126   3.551   0.922   9.922
 7111SOL    HW125127   3.646   0.893   9.930
 7111SOL    HW225128   3.543   0.987   9.847
 7112SOL     OW25129   3.503   1.108   9.742
 7112SOL    HW125130   3.589   1.110   9.690
 7112SOL    HW225131   3.517   1.155   9.830
 7113SOL     OW25132   2.475   1.365  10.036
 7113SOL    HW125133   2.426   1.278  10.045
 7113SOL    HW225134   2.452   1.408   9.949
 7114SOL     OW25135   2.671   0.004   9.812
 7114SOL    HW125136   2.711   0.095   9.803
 7114SOL    HW225137   2.571   0.012   9.818
 7115SOL     OW25138   3.387   0.999   9.500
 7115SOL    HW125139   3.324   0.923   9.513
 7115SOL    HW225140   3.435   1.017   9.586
 7116SOL     OW25141   2.460   0.729   9.580
 7116SOL    HW125142   2.484   0.798   9.512
 7116SOL    HW225143   2.382   0.762   9.634
 7117SOL     OW25144   3.438   1.662   9.617
 7117SOL    HW125145   3.527   1.708   9.620
 7117SOL    HW225146   3.417   1.638   9.522
 7118SOL     OW25147   2.903   0.701   9.739
 7118SOL    HW125148   2.929   0.697   9.835
 7118SOL    HW225149   2.818   0.650   9.725
 7119SOL     OW25150   1.938   0.811  10.099
 7119SOL    HW125151   2.037   0.799  10.108
 7119SOL    HW225152   1.914   0.906  10.120
 7120SOL     OW25153   2.727   0.348   9.505
 7120SOL    HW125154   2.786   0.411   9.456
 7120SOL    HW225155   2.746   0.254   9.476
 7121SOL     OW25156   3.224   1.144   9.855
 7121SOL    HW125157   3.307   1.115   9.807
 7121SOL    HW225158   3.175   1.211   9.799
 7122SOL     OW25159   2.870   1.456   9.787
 7122SOL    HW125160   2.824   1.528   9.735
 7122SOL    HW225161   2.866   1.476   9.885
 7123SOL     OW25162   2.213   1.801  10.163
 7123SOL    HW125163   2.263   1.715  10.169
 7123SOL    HW225164   2.278   1.878  10.160
 7124SOL     OW25165   2.183   0.943   9.552
 7124SOL    HW125166   2.265   0.982   9.510
 7124SOL    HW225167   2.156   0.861   9.503
 7125SOL     OW25168   2.973   1.776   9.547
 7125SOL    HW125169   2.913   1.714   9.597
 7125SOL    HW225170   3.004   1.732   9.462
 7126SOL     OW25171   3.494   1.377   9.391
 7126SOL    HW125172   3.462   1.471   9.381
 7126SOL    HW225173   3.418   1.314   9.379
 7127SOL     OW25174   2.326   1.743   9.633
 7127SOL    HW125175   2.359   1.782   9.719
 7127SOL    HW225176   2.402   1.736   9.568
 7128SOL     OW25177   3.262   0.107   9.736
 7128SOL    HW125178   3.238   0.070   9.646
 7128SOL    HW225179   3.361   0.123   9.740
 7129SOL     OW25180   2.244   0.700   9.790
 7129SOL    HW125181   2.289   0.610   9.787
 7129SOL    HW225182   2.150   0.689   9.823
 7130SOL     OW25183   2.476   0.122   9.427
 7130SOL    HW125184   2.574   0.100   9.434
 7130SOL    HW225185   2.445   0.105   9.334
 7131SOL     OW25186   2.401   0.064   9.822
 7131SOL    HW125187   2.320   0.065   9.880
 7131SOL    HW225188   2.404   0.147   9.767
 7132SOL     OW25189   3.296   1.188   9.351
 7132SOL    HW125190   3.328   1.112   9.408
 7132SOL    HW225191   3.204   1.215   9.381
 7133SOL     OW25192   2.159   0.035   9.481
 7133SOL    HW125193   2.208   0.119   9.460
 7133SOL    HW225194   2.221  -0.030   9.526
 7134SOL     OW25195   2.797   0.236   9.790
 7134SOL    HW125196   2.749   0.277   9.712
 7134SOL    HW225197   2.896   0.234   9.771
 7135SOL     OW25198   3.133   1.797   9.901
 7135SOL    HW125199   3.177   1.861   9.837
 7135SOL    HW225200   3.083   1.849   9.971
 7136SOL     OW25201   2.894   0.549   9.326
 7136SOL    HW125202   2.853   0.631   9.287
 7136SOL    HW225203   2.958   0.575   9.399
 7137SOL     OW25204   2.728   0.454   9.952
 7137SOL    HW125205   2.696   0.526   9.890
 7137SOL    HW225206   2.752   0.373   9.899
 7138SOL     OW25207   2.350   1.385   9.484
 7138SOL    HW125208   2.263   1.370   9.531
 7138SOL    HW225209   2.333   1.411   9.389
 7139SOL     OW25210   3.252   0.575   9.388
 7139SOL    HW125211   3.198   0.554   9.469
 7139SOL    HW225212   3.343   0.534   9.397
 7140SOL     OW25213   2.389   0.256   9.638
 7140SOL    HW125214   2.416   0.197   9.563
 7140SOL    HW225215   2.389   0.351   9.607
 7141SOL     OW25216   2.567   1.050   9.678
 7141SOL    HW125217   2.553   1.057   9.777
 7141SOL    HW225218   2.651   0.999   9.660
 7142SOL     OW25219   3.114   1.348   9.698
 7142SOL    HW125220   3.164   1.425   9.738
 7142SOL    HW225221   3.019   1.350   9.730
 7143SOL     OW25222   3.444   0.639   9.782
 7143SOL    HW125223   3.413   0.700   9.855
 7143SOL    HW225224   3.494   0.691   9.713
 7144SOL     OW25225   3.071   0.525   9.585
 7144SOL    HW125226   3.084   0.441   9.639
 7144SOL    HW225227   3.042   0.599   9.645
 7145SOL     OW25228   2.169   0.063   9.928
 7145SOL    HW125229   2.158   0.157   9.961
 7145SOL    HW225230   2.164   0.000  10.005
 7146SOL     OW25231   3.484   0.367   9.684
 7146SOL    HW125232   3.486   0.291   9.748
 7146SOL    HW225233   3.436   0.444   9.724
 7147SOL     OW25234   3.402   0.274   9.435
 7147SOL    HW125235   3.341   0.199   9.458
 7147SOL    HW225236   3.424   0.326   9.518
 7148SOL     OW25237   1.870   1.326   9.510
 7148SOL    HW125238   1.777   1.347   9.479
 7148SOL    HW225239   1.880   1.227   9.523
 7149SOL     OW25240   2.677   0.572   9.635
 7149SOL    HW125241   2.684   0.483   9.589
 7149SOL    HW225242   2.583   0.606   9.627
 7150SOL     OW25243   2.335   0.500   9.501
 7150SOL    HW125244   2.396   0.580   9.505
 7150SOL    HW225245   2.240   0.531   9.508
 7151SOL     OW25246   3.164   0.855   9.619
 7151SOL    HW125247   3.078   0.824   9.661
 7151SOL    HW225248   3.160   0.841   9.520
 7152SOL     OW25249   3.588   0.135   9.833
 7152SOL    HW125250   3.661   0.118   9.766
 7152SOL    HW225251   3.557   0.048   9.871
 7153SOL     OW25252   3.250   1.573   9.787
 7153SOL    HW125253   3.317   1.585   9.713
 7153SOL    HW225254   3.210   1.662   9.810
 7154SOL     OW25255   2.534   1.616   9.464
 7154SOL    HW125256   2.543   1.626   9.365
 7154SOL    HW225257   2.494   1.527   9.485
 7155SOL     OW25258   3.703   0.175  10.273
 7155SOL    HW125259   3.742   0.090  10.237
 7155SOL    HW225260   3.605   0.177  10.254
 7156SOL     OW25261   3.056   1.612   9.341
 7156SOL    HW125262   3.062   1.519   9.378
 7156SOL    HW225263   2.997   1.612   9.261
 7157SOL     OW25264   2.778   0.910   9.601
 7157SOL    HW125265   2.841   0.948   9.533
 7157SOL    HW225266   2.818   0.827   9.640
 7158SOL     OW25267   3.366   1.607   9.354
 7158SOL    HW125268   3.274   1.644   9.361
 7158SOL    HW225269   3.404   1.627   9.264
 7159SOL     OW25270   2.452   1.487   9.801
 7159SOL    HW125271   2.494   1.429   9.731
 7159SOL    HW225272   2.408   1.566   9.757
 7160SOL     OW25273   2.117   1.348   9.600
 7160SOL    HW125274   2.021   1.349   9.573
 7160SOL    HW225275   2.129   1.401   9.684
 7161SOL     OW25276   1.937   0.345   9.343
 7161SOL    HW125277   1.845   0.317   9.314
 7161SOL    HW225278   1.968   0.422   9.287
 7162SOL     OW25279   1.934   0.166   9.628
 7162SOL    HW125280   1.917   0.249   9.574
 7162SOL    HW225281   2.024   0.129   9.606
 7163SOL     OW25282   3.045   1.335   9.429
 7163SOL    HW125283   2.946   1.324   9.431
 7163SOL    HW225284   3.079   1.350   9.522
 7164SOL     OW25285   3.087   0.325   9.759
 7164SOL    HW125286   3.152   0.251   9.748
 7164SOL    HW225287   3.107   0.375   9.843
 7165SOL     OW25288   2.721   1.374   9.326
 7165SOL    HW125289   2.675   1.389   9.414
 7165SOL    HW225290   2.765   1.459   9.296
 7166SOL     OW25291   2.945   0.984   9.397
 7166SOL    HW125292   2.922   1.037   9.315
 7166SOL    HW225293   3.026   0.928   9.378
 7167SOL     OW25294   2.290   0.424   9.830
 7167SOL    HW125295   2.320   0.352   9.768
 7167SOL    HW225296   2.251   0.384   9.913
 7168SOL     OW25297   2.632   1.330   9.611
 7168SOL    HW125298   2.586   1.243   9.628
 7168SOL    HW225299   2.723   1.327   9.652
 7169SOL     OW25300   3.214   0.052   9.478
 7169SOL    HW125301   3.249   0.011   9.394
 7169SOL    HW225302   3.124   0.014   9.498
 7170SOL     OW25303   1.901   1.077   9.610
 7170SOL    HW125304   2.000   1.066   9.601
 7170SOL    HW225305   1.861   0.991   9.642
 7171SOL     OW25306   2.737   1.646   9.647
 7171SOL    HW125307   2.660   1.611   9.593
 7171SOL    HW225308   2.705   1.717   9.709
 7172SOL     OW25309   2.092   2.490   0.113
 7172SOL    HW125310   1.999   2.488   0.150
 7172SOL    HW225311   2.093   2.451   0.021
 7173SOL     OW25312   2.087   2.137   0.996
 7173SOL    HW125313   2.122   2.120   1.088
 7173SOL    HW225314   1.999   2.092   0.984
 7174SOL     OW25315   1.881   2.230   0.647
 7174SOL    HW125316   1.799   2.273   0.686
 7174SOL    HW225317   1.853   2.157   0.584
 7175SOL     OW25318   2.431   3.137   1.165
 7175SOL    HW125319   2.338   3.130   1.128
 7175SOL    HW225320   2.442   3.226   1.209
 7176SOL     OW25321   2.997   2.565   0.717
 7176SOL    HW125322   3.054   2.643   0.692
 7176SOL    HW225323   2.937   2.591   0.793
 7177SOL     OW25324   3.617   2.469   0.231
 7177SOL    HW125325   3.605   2.456   0.132
 7177SOL    HW225326   3.587   2.388   0.280
 7178SOL     OW25327   2.630   3.006   1.023
 7178SOL    HW125328   2.552   3.023   1.083
 7178SOL    HW225329   2.664   3.093   0.987
 7179SOL     OW25330   2.712   2.660   1.823
 7179SOL    HW125331   2.708   2.736   1.888
 7179SOL    HW225332   2.734   2.696   1.732
 7180SOL     OW25333   2.547   2.874   0.665
 7180SOL    HW125334   2.616   2.858   0.735
 7180SOL    HW225335   2.474   2.931   0.703
 7181SOL     OW25336   2.548   3.023   1.803
 7181SOL    HW125337   2.608   3.102   1.817
 7181SOL    HW225338   2.462   3.054   1.762
 7182SOL     OW25339   2.197   3.297   1.061
 7182SOL    HW125340   2.119   3.266   1.008
 7182SOL    HW225341   2.255   3.355   1.004
 7183SOL     OW25342   3.322   3.367   1.339
 7183SOL    HW125343   3.346   3.461   1.365
 7183SOL    HW225344   3.306   3.313   1.421
 7184SOL     OW25345   2.300   2.254   1.499
 7184SOL    HW125346   2.382   2.198   1.508
 7184SOL    HW225347   2.219   2.196   1.503
 7185SOL     OW25348   3.465   2.309   0.737
 7185SOL    HW125349   3.391   2.355   0.687
 7185SOL    HW225350   3.516   2.377   0.790
 7186SOL     OW25351   2.093   3.575   0.483
 7186SOL    HW125352   2.127   3.652   0.537
 7186SOL    HW225353   2.137   3.575   0.393
 7187SOL     OW25354   2.989   3.203   1.690
 7187SOL    HW125355   3.036   3.203   1.778
 7187SOL    HW225356   2.941   3.116   1.679
 7188SOL     OW25357   2.092   3.296   0.538
 7188SOL    HW125358   2.066   3.392   0.538
 7188SOL    HW225359   2.021   3.242   0.583
 7189SOL     OW25360   2.482   3.648   1.439
 7189SOL    HW125361   2.390   3.631   1.474
 7189SOL    HW225362   2.510   3.740   1.465
 7190SOL     OW25363   2.468   2.826   0.123
 7190SOL    HW125364   2.475   2.910   0.069
 7190SOL    HW225365   2.514   2.839   0.211
 7191SOL     OW25366   3.456   1.976   1.480
 7191SOL    HW125367   3.438   2.043   1.408
 7191SOL    HW225368   3.453   2.022   1.569
 7192SOL     OW25369   1.984   2.505   0.563
 7192SOL    HW125370   1.939   2.417   0.580
 7192SOL    HW225371   1.983   2.559   0.647
 7193SOL     OW25372   3.704   3.629   0.359
 7193SOL    HW125373   3.758   3.600   0.439
 7193SOL    HW225374   3.734   3.719   0.330
 7194SOL     OW25375   1.889   3.458   0.117
 7194SOL    HW125376   1.870   3.362   0.138
 7194SOL    HW225377   1.856   3.516   0.192
 7195SOL     OW25378   3.551   2.784   0.612
 7195SOL    HW125379   3.646   2.755   0.620
 7195SOL    HW225380   3.543   2.849   0.537
 7196SOL     OW25381   3.503   2.970   0.432
 7196SOL    HW125382   3.589   2.972   0.380
 7196SOL    HW225383   3.517   3.017   0.520
 7197SOL     OW25384   1.975   2.599   1.597
 7197SOL    HW125385   2.063   2.586   1.642
 7197SOL    HW225386   1.962   2.696   1.575
 7198SOL     OW25387   2.475   3.227   0.726
 7198SOL    HW125388   2.426   3.140   0.735
 7198SOL    HW225389   2.452   3.270   0.639
 7199SOL     OW25390   3.155   3.090   1.423
 7199SOL    HW125391   3.192   3.017   1.365
 7199SOL    HW225392   3.207   3.095   1.508
 7200SOL     OW25393   2.671   1.866   0.502
 7200SOL    HW125394   2.711   1.957   0.493
 7200SOL    HW225395   2.571   1.874   0.508
 7201SOL     OW25396   2.059   2.838   1.264
 7201SOL    HW125397   2.148   2.793   1.250
 7201SOL    HW225398   1.986   2.773   1.245
 7202SOL     OW25399   3.387   2.861   0.190
 7202SOL    HW125400   3.324   2.785   0.203
 7202SOL    HW225401   3.435   2.879   0.276
 7203SOL     OW25402   3.049   3.654   1.616
 7203SOL    HW125403   3.073   3.714   1.540
 7203SOL    HW225404   3.056   3.559   1.586
 7204SOL     OW25405   2.179   2.113   1.801
 7204SOL    HW125406   2.250   2.184   1.807
 7204SOL    HW225407   2.091   2.152   1.829
 7205SOL     OW25408   3.328   3.279   0.953
 7205SOL    HW125409   3.269   3.285   1.033
 7205SOL    HW225410   3.313   3.191   0.907
 7206SOL     OW25411   3.529   3.576   0.572
 7206SOL    HW125412   3.488   3.553   0.484
 7206SOL    HW225413   3.511   3.502   0.637
 7207SOL     OW25414   2.460   2.591   0.270
 7207SOL    HW125415   2.484   2.660   0.202
 7207SOL    HW225416   2.382   2.624   0.324
 7208SOL     OW25417   3.143   2.207   0.944
 7208SOL    HW125418   3.057   2.157   0.931
 7208SOL    HW225419   3.205   2.153   1.000
 7209SOL     OW25420   2.669   2.467   1.465
 7209SOL    HW125421   2.622   2.464   1.554
 7209SOL    HW225422   2.618   2.412   1.399
 7210SOL     OW25423   3.256   2.331   1.674
 7210SOL    HW125424   3.236   2.374   1.762
 7210SOL    HW225425   3.334   2.269   1.683
 7211SOL     OW25426   2.835   2.752   1.572
 7211SOL    HW125427   2.881   2.668   1.543
 7211SOL    HW225428   2.779   2.786   1.497
 7212SOL     OW25429   2.853   2.272   1.242
 7212SOL    HW125430   2.776   2.306   1.296
 7212SOL    HW225431   2.819   2.221   1.163
 7213SOL     OW25432   2.903   2.563   0.429
 7213SOL    HW125433   2.929   2.559   0.525
 7213SOL    HW225434   2.818   2.512   0.415
 7214SOL     OW25435   2.727   2.210   0.195
 7214SOL    HW125436   2.786   2.273   0.146
 7214SOL    HW225437   2.746   2.116   0.166
 7215SOL     OW25438   3.581   2.447   1.831
 7215SOL    HW125439   3.555   2.536   1.795
 7215SOL    HW225440   3.579   2.379   1.758
 7216SOL     OW25441   2.412   2.058   0.885
 7216SOL    HW125442   2.407   2.053   0.985
 7216SOL    HW225443   2.414   2.154   0.856
 7217SOL     OW25444   2.870   3.318   0.477
 7217SOL    HW125445   2.824   3.390   0.425
 7217SOL    HW225446   2.866   3.338   0.575
 7218SOL     OW25447   2.213   3.663   0.853
 7218SOL    HW125448   2.263   3.577   0.859
 7218SOL    HW225449   2.278   3.740   0.850
 7219SOL     OW25450   3.657   2.928   0.873
 7219SOL    HW125451   3.595   2.913   0.797
 7219SOL    HW225452   3.605   2.939   0.958
 7220SOL     OW25453   3.089   3.412   1.506
 7220SOL    HW125454   3.095   3.335   1.570
 7220SOL    HW225455   3.037   3.386   1.426
 7221SOL     OW25456   2.183   2.805   0.242
 7221SOL    HW125457   2.265   2.844   0.200
 7221SOL    HW225458   2.156   2.723   0.193
 7222SOL     OW25459   3.320   2.597   0.728
 7222SOL    HW125460   3.315   2.532   0.803
 7222SOL    HW225461   3.400   2.656   0.741
 7223SOL     OW25462   2.323   3.128   1.727
 7223SOL    HW125463   2.273   3.129   1.641
 7223SOL    HW225464   2.260   3.110   1.803
 7224SOL     OW25465   2.973   3.638   0.237
 7224SOL    HW125466   2.913   3.576   0.287
 7224SOL    HW225467   3.004   3.594   0.152
 7225SOL     OW25468   2.064   2.147   1.498
 7225SOL    HW125469   1.984   2.207   1.485
 7225SOL    HW225470   2.054   2.098   1.584
 7226SOL     OW25471   3.494   3.239   0.081
 7226SOL    HW125472   3.462   3.333   0.071
 7226SOL    HW225473   3.418   3.176   0.069
 7227SOL     OW25474   2.326   3.605   0.323
 7227SOL    HW125475   2.359   3.644   0.409
 7227SOL    HW225476   2.402   3.598   0.258
 7228SOL     OW25477   3.262   1.969   0.426
 7228SOL    HW125478   3.238   1.932   0.336
 7228SOL    HW225479   3.361   1.985   0.430
 7229SOL     OW25480   2.111   3.647   1.241
 7229SOL    HW125481   2.168   3.582   1.291
 7229SOL    HW225482   2.095   3.614   1.148
 7230SOL     OW25483   2.802   3.560   0.904
 7230SOL    HW125484   2.882   3.503   0.925
 7230SOL    HW225485   2.753   3.520   0.827
 7231SOL     OW25486   3.409   2.084   1.729
 7231SOL    HW125487   3.404   2.121   1.821
 7231SOL    HW225488   3.337   2.015   1.717
 7232SOL     OW25489   2.476   1.984   0.117
 7232SOL    HW125490   2.574   1.962   0.124
 7232SOL    HW225491   2.445   1.967   0.024
 7233SOL     OW25492   2.643   2.126   1.749
 7233SOL    HW125493   2.710   2.065   1.792
 7233SOL    HW225494   2.570   2.145   1.814
 7234SOL     OW25495   2.750   3.376   1.195
 7234SOL    HW125496   2.727   3.351   1.101
 7234SOL    HW225497   2.811   3.307   1.234
 7235SOL     OW25498   3.213   2.452   1.433
 7235SOL    HW125499   3.241   2.409   1.518
 7235SOL    HW225500   3.238   2.548   1.434
 7236SOL     OW25501   2.665   3.264   0.924
 7236SOL    HW125502   2.755   3.278   0.882
 7236SOL    HW225503   2.594   3.266   0.853
 7237SOL     OW25504   2.784   2.365   0.899
 7237SOL    HW125505   2.759   2.356   0.803
 7237SOL    HW225506   2.832   2.283   0.930
 7238SOL     OW25507   2.401   1.926   0.512
 7238SOL    HW125508   2.320   1.927   0.570
 7238SOL    HW225509   2.404   2.009   0.457
 7239SOL     OW25510   3.296   3.050   0.041
 7239SOL    HW125511   3.328   2.974   0.098
 7239SOL    HW225512   3.204   3.077   0.071
 7240SOL     OW25513   2.797   2.098   0.480
 7240SOL    HW125514   2.749   2.139   0.402
 7240SOL    HW225515   2.896   2.096   0.461
 7241SOL     OW25516   2.938   2.545   1.464
 7241SOL    HW125517   2.858   2.484   1.467
 7241SOL    HW225518   3.019   2.492   1.440
 7242SOL     OW25519   3.089   3.432   0.793
 7242SOL    HW125520   3.110   3.506   0.728
 7242SOL    HW225521   3.157   3.432   0.866
 7243SOL     OW25522   2.894   2.411   0.016
 7243SOL    HW125523   2.853   2.493  -0.023
 7243SOL    HW225524   2.958   2.437   0.089
 7244SOL     OW25525   1.940   2.418   1.386
 7244SOL    HW125526   2.032   2.417   1.345
 7244SOL    HW225527   1.934   2.492   1.453
 7245SOL     OW25528   2.423   2.084   1.147
 7245SOL    HW125529   2.461   2.000   1.184
 7245SOL    HW225530   2.335   2.103   1.191
 7246SOL     OW25531   2.728   2.316   0.642
 7246SOL    HW125532   2.696   2.388   0.580
 7246SOL    HW225533   2.752   2.235   0.589
 7247SOL     OW25534   2.879   1.901   0.753
 7247SOL    HW125535   2.807   1.906   0.684
 7247SOL    HW225536   2.855   1.832   0.822
 7248SOL     OW25537   3.291   3.035   0.867
 7248SOL    HW125538   3.236   2.951   0.860
 7248SOL    HW225539   3.317   3.064   0.775
 7249SOL     OW25540   3.328   2.452   0.992
 7249SOL    HW125541   3.298   2.357   0.999
 7249SOL    HW225542   3.401   2.468   1.058
 7250SOL     OW25543   3.719   2.695   0.377
 7250SOL    HW125544   3.761   2.631   0.441
 7250SOL    HW225545   3.681   2.644   0.299
 7251SOL     OW25546   2.350   3.247   0.174
 7251SOL    HW125547   2.263   3.232   0.221
 7251SOL    HW225548   2.333   3.273   0.079
 7252SOL     OW25549   3.526   3.142   0.657
 7252SOL    HW125550   3.625   3.150   0.671
 7252SOL    HW225551   3.481   3.226   0.688
 7253SOL     OW25552   3.252   2.437   0.078
 7253SOL    HW125553   3.198   2.416   0.159
 7253SOL    HW225554   3.343   2.396   0.087
 7254SOL     OW25555   2.389   2.118   0.328
 7254SOL    HW125556   2.416   2.059   0.253
 7254SOL    HW225557   2.389   2.213   0.297
 7255SOL     OW25558   3.616   3.085   1.588
 7255SOL    HW125559   3.707   3.046   1.575
 7255SOL    HW225560   3.624   3.181   1.612
 7256SOL     OW25561   2.926   3.209   1.340
 7256SOL    HW125562   2.846   3.186   1.395
 7256SOL    HW225563   3.009   3.183   1.389
 7257SOL     OW25564   3.454   3.491   1.625
 7257SOL    HW125565   3.481   3.525   1.535
 7257SOL    HW225566   3.533   3.453   1.671
 7258SOL     OW25567   2.973   3.057   1.100
 7258SOL    HW125568   2.933   3.101   1.181
 7258SOL    HW225569   2.932   3.094   1.017
 7259SOL     OW25570   3.500   2.961   1.079
 7259SOL    HW125571   3.505   3.042   1.138
 7259SOL    HW225572   3.414   2.963   1.028
 7260SOL     OW25573   2.777   1.951   1.402
 7260SOL    HW125574   2.802   1.931   1.307
 7260SOL    HW225575   2.849   2.007   1.444
 7261SOL     OW25576   2.842   2.978   1.719
 7261SOL    HW125577   2.743   2.984   1.729
 7261SOL    HW225578   2.865   2.898   1.663
 7262SOL     OW25579   2.567   2.912   0.368
 7262SOL    HW125580   2.553   2.919   0.467
 7262SOL    HW225581   2.651   2.861   0.350
 7263SOL     OW25582   2.272   2.675   1.251
 7263SOL    HW125583   2.358   2.687   1.301
 7263SOL    HW225584   2.230   2.588   1.278
 7264SOL     OW25585   3.136   2.248   1.262
 7264SOL    HW125586   3.157   2.322   1.326
 7264SOL    HW225587   3.047   2.265   1.219
 7265SOL     OW25588   2.428   2.399   0.865
 7265SOL    HW125589   2.440   2.465   0.791
 7265SOL    HW225590   2.474   2.433   0.948
 7266SOL     OW25591   3.134   3.307   1.142
 7266SOL    HW125592   3.181   3.320   1.229
 7266SOL    HW225593   3.068   3.233   1.151
 7267SOL     OW25594   3.444   2.501   0.472
 7267SOL    HW125595   3.413   2.562   0.545
 7267SOL    HW225596   3.494   2.553   0.403
 7268SOL     OW25597   2.216   3.372   1.329
 7268SOL    HW125598   2.195   3.328   1.242
 7268SOL    HW225599   2.313   3.398   1.332
 7269SOL     OW25600   2.264   2.613   1.598
 7269SOL    HW125601   2.332   2.668   1.551
 7269SOL    HW225602   2.304   2.525   1.625
 7270SOL     OW25603   3.449   2.641   1.670
 7270SOL    HW125604   3.357   2.679   1.665
 7270SOL    HW225605   3.509   2.688   1.605
 7271SOL     OW25606   2.875   1.967   1.770
 7271SOL    HW125607   2.881   2.052   1.718
 7271SOL    HW225608   2.907   1.891   1.713
 7272SOL     OW25609   2.366   1.912   1.740
 7272SOL    HW125610   2.324   1.855   1.670
 7272SOL    HW225611   2.300   1.981   1.772
 7273SOL     OW25612   2.435   2.732   1.029
 7273SOL    HW125613   2.479   2.821   1.020
 7273SOL    HW225614   2.372   2.732   1.106
 7274SOL     OW25615   3.222   2.724   1.045
 7274SOL    HW125616   3.147   2.724   0.979
 7274SOL    HW225617   3.259   2.632   1.054
 7275SOL     OW25618   3.071   2.387   0.275
 7275SOL    HW125619   3.084   2.303   0.329
 7275SOL    HW225620   3.042   2.461   0.335
 7276SOL     OW25621   2.169   2.075   1.231
 7276SOL    HW125622   2.146   2.112   1.321
 7276SOL    HW225623   2.139   1.980   1.225
 7277SOL     OW25624   1.899   3.172   1.282
 7277SOL    HW125625   1.952   3.123   1.350
 7277SOL    HW225626   1.921   3.270   1.287
 7278SOL     OW25627   2.594   2.496   1.064
 7278SOL    HW125628   2.653   2.470   0.988
 7278SOL    HW225629   2.566   2.592   1.053
 7279SOL     OW25630   3.590   2.797   1.854
 7279SOL    HW125631   3.544   2.790   1.765
 7279SOL    HW225632   3.528   2.841   1.920
 7280SOL     OW25633   2.169   1.925   0.618
 7280SOL    HW125634   2.158   2.019   0.651
 7280SOL    HW225635   2.164   1.862   0.695
 7281SOL     OW25636   3.484   2.229   0.374
 7281SOL    HW125637   3.486   2.153   0.438
 7281SOL    HW225638   3.436   2.306   0.414
 7282SOL     OW25639   2.885   2.628   0.966
 7282SOL    HW125640   2.900   2.649   1.062
 7282SOL    HW225641   2.855   2.533   0.957
 7283SOL     OW25642   2.842   3.435   1.700
 7283SOL    HW125643   2.822   3.479   1.612
 7283SOL    HW225644   2.881   3.344   1.684
 7284SOL     OW25645   3.721   3.380   1.605
 7284SOL    HW125646   3.735   3.407   1.510
 7284SOL    HW225647   3.804   3.402   1.658
 7285SOL     OW25648   2.212   2.760   1.804
 7285SOL    HW125649   2.288   2.804   1.852
 7285SOL    HW225650   2.247   2.713   1.722
 7286SOL     OW25651   3.402   2.136   0.125
 7286SOL    HW125652   3.341   2.061   0.148
 7286SOL    HW225653   3.424   2.188   0.208
 7287SOL     OW25654   3.165   2.700   0.042
 7287SOL    HW125655   3.199   2.607   0.057
 7287SOL    HW225656   3.183   2.727  -0.053
 7288SOL     OW25657   2.930   3.195   0.849
 7288SOL    HW125658   2.937   3.111   0.794
 7288SOL    HW225659   2.992   3.264   0.813
 7289SOL     OW25660   2.201   2.371   1.006
 7289SOL    HW125661   2.149   2.288   0.989
 7289SOL    HW225662   2.278   2.376   0.942
 7290SOL     OW25663   3.000   2.242   1.678
 7290SOL    HW125664   2.955   2.305   1.742
 7290SOL    HW225665   3.093   2.273   1.661
 7291SOL     OW25666   3.022   2.069   1.477
 7291SOL    HW125667   3.022   2.133   1.554
 7291SOL    HW225668   3.050   2.117   1.394
 7292SOL     OW25669   1.870   3.188   0.200
 7292SOL    HW125670   1.777   3.209   0.169
 7292SOL    HW225671   1.880   3.089   0.213
 7293SOL     OW25672   1.950   3.663   0.927
 7293SOL    HW125673   1.908   3.577   0.900
 7293SOL    HW225674   2.044   3.666   0.893
 7294SOL     OW25675   2.366   3.430   0.910
 7294SOL    HW125676   2.432   3.504   0.919
 7294SOL    HW225677   2.410   3.351   0.868
 7295SOL     OW25678   2.864   2.658   1.238
 7295SOL    HW125679   2.905   2.626   1.324
 7295SOL    HW225680   2.768   2.631   1.235
 7296SOL     OW25681   1.902   2.406   1.114
 7296SOL    HW125682   1.987   2.373   1.073
 7296SOL    HW225683   1.915   2.421   1.212
 7297SOL     OW25684   2.051   2.382   1.722
 7297SOL    HW125685   2.110   2.342   1.652
 7297SOL    HW225686   1.993   2.453   1.681
 7298SOL     OW25687   3.231   2.812   1.660
 7298SOL    HW125688   3.270   2.901   1.680
 7298SOL    HW225689   3.241   2.792   1.563
 7299SOL     OW25690   2.677   2.434   0.325
 7299SOL    HW125691   2.684   2.345   0.279
 7299SOL    HW225692   2.583   2.468   0.317
 7300SOL     OW25693   3.519   2.466   1.206
 7300SOL    HW125694   3.481   2.397   1.268
 7300SOL    HW225695   3.601   2.430   1.162
 7301SOL     OW25696   2.114   3.426   1.744
 7301SOL    HW125697   2.084   3.483   1.820
 7301SOL    HW225698   2.107   3.329   1.770
 7302SOL     OW25699   2.533   2.326   1.269
 7302SOL    HW125700   2.499   2.237   1.239
 7302SOL    HW225701   2.559   2.380   1.189
 7303SOL     OW25702   2.792   3.540   1.465
 7303SOL    HW125703   2.768   3.522   1.370
 7303SOL    HW225704   2.822   3.634   1.475
 7304SOL     OW25705   2.335   2.362   0.191
 7304SOL    HW125706   2.396   2.442   0.195
 7304SOL    HW225707   2.240   2.393   0.198
 7305SOL     OW25708   2.021   2.999   1.466
 7305SOL    HW125709   2.043   2.938   1.542
 7305SOL    HW225710   2.031   2.950   1.380
 7306SOL     OW25711   3.209   2.921   1.234
 7306SOL    HW125712   3.233   2.858   1.160
 7306SOL    HW225713   3.119   2.961   1.216
 7307SOL     OW25714   3.164   2.717   0.309
 7307SOL    HW125715   3.078   2.686   0.351
 7307SOL    HW225716   3.160   2.703   0.210
 7308SOL     OW25717   3.621   3.609   1.154
 7308SOL    HW125718   3.682   3.639   1.081
 7308SOL    HW225719   3.583   3.520   1.132
 7309SOL     OW25720   3.114   3.593   1.128
 7309SOL    HW125721   3.198   3.598   1.074
 7309SOL    HW225722   3.091   3.497   1.146
 7310SOL     OW25723   1.945   3.120   1.022
 7310SOL    HW125724   1.940   3.119   1.122
 7310SOL    HW225725   1.862   3.079   0.984
 7311SOL     OW25726   2.550   3.524   1.716
 7311SOL    HW125727   2.494   3.605   1.725
 7311SOL    HW225728   2.602   3.528   1.630
 7312SOL     OW25729   2.765   1.948   0.133
 7312SOL    HW125730   2.816   1.949   0.047
 7312SOL    HW225731   2.821   1.906   0.204
 7313SOL     OW25732   3.588   1.997   0.523
 7313SOL    HW125733   3.661   1.980   0.456
 7313SOL    HW225734   3.557   1.910   0.561
 7314SOL     OW25735   1.992   3.656   1.851
 7314SOL    HW125736   1.951   3.582   1.904
 7314SOL    HW225737   2.056   3.707   1.909
 7315SOL     OW25738   3.142   2.789   0.672
 7315SOL    HW125739   3.202   2.708   0.674
 7315SOL    HW225740   3.182   2.858   0.612
 7316SOL     OW25741   2.692   3.135   1.422
 7316SOL    HW125742   2.687   3.168   1.517
 7316SOL    HW225743   2.606   3.154   1.376
 7317SOL     OW25744   2.534   3.478   0.154
 7317SOL    HW125745   2.543   3.488   0.055
 7317SOL    HW225746   2.494   3.389   0.175
 7318SOL     OW25747   3.512   3.582   1.394
 7318SOL    HW125748   3.565   3.592   1.310
 7318SOL    HW225749   3.485   3.672   1.428
 7319SOL     OW25750   3.703   2.037   0.963
 7319SOL    HW125751   3.742   1.952   0.927
 7319SOL    HW225752   3.605   2.039   0.944
 7320SOL     OW25753   2.125   2.188   0.720
 7320SOL    HW125754   2.046   2.239   0.686
 7320SOL    HW225755   2.116   2.173   0.818
 7321SOL     OW25756   3.056   3.474   0.031
 7321SOL    HW125757   3.062   3.381   0.068
 7321SOL    HW225758   2.997   3.474  -0.049
 7322SOL     OW25759   2.684   2.864   1.372
 7322SOL    HW125760   2.724   2.863   1.280
 7322SOL    HW225761   2.694   2.956   1.412
 7323SOL     OW25762   2.778   2.772   0.291
 7323SOL    HW125763   2.841   2.810   0.223
 7323SOL    HW225764   2.818   2.689   0.330
 7324SOL     OW25765   3.366   3.469   0.044
 7324SOL    HW125766   3.274   3.506   0.051
 7324SOL    HW225767   3.404   3.489  -0.046
 7325SOL     OW25768   2.234   3.150   1.490
 7325SOL    HW125769   2.221   3.243   1.456
 7325SOL    HW225770   2.150   3.098   1.477
 7326SOL     OW25771   3.476   3.154   1.289
 7326SOL    HW125772   3.536   3.157   1.369
 7326SOL    HW225773   3.401   3.218   1.302
 7327SOL     OW25774   2.901   2.960   0.696
 7327SOL    HW125775   2.831   2.913   0.750
 7327SOL    HW225776   2.960   2.892   0.653
 7328SOL     OW25777   2.876   2.098   0.971
 7328SOL    HW125778   2.868   2.062   0.878
 7328SOL    HW225779   2.874   2.022   1.036
 7329SOL     OW25780   2.452   3.349   0.491
 7329SOL    HW125781   2.494   3.291   0.421
 7329SOL    HW225782   2.408   3.428   0.447
 7330SOL     OW25783   3.571   2.247   1.381
 7330SOL    HW125784   3.644   2.316   1.385
 7330SOL    HW225785   3.599   2.172   1.322
 7331SOL     OW25786   2.117   3.210   0.290
 7331SOL    HW125787   2.021   3.211   0.263
 7331SOL    HW225788   2.129   3.263   0.374
 7332SOL     OW25789   1.967   2.875   1.726
 7332SOL    HW125790   1.890   2.842   1.780
 7332SOL    HW225791   2.052   2.845   1.768
 7333SOL     OW25792   2.534   2.065   1.489
 7333SOL    HW125793   2.624   2.049   1.449
 7333SOL    HW225794   2.542   2.070   1.588
 7334SOL     OW25795   1.937   2.207   0.033
 7334SOL    HW125796   1.845   2.179   0.004
 7334SOL    HW225797   1.968   2.284  -0.023
 7335SOL     OW25798   3.302   2.718   1.398
 7335SOL    HW125799   3.245   2.770   1.335
 7335SOL    HW225800   3.398   2.730   1.374
 7336SOL     OW25801   1.934   2.028   0.318
 7336SOL    HW125802   1.917   2.111   0.264
 7336SOL    HW225803   2.024   1.991   0.296
 7337SOL     OW25804   3.045   3.197   0.119
 7337SOL    HW125805   2.946   3.186   0.121
 7337SOL    HW225806   3.079   3.212   0.212
 7338SOL     OW25807   2.475   2.704   1.431
 7338SOL    HW125808   2.531   2.785   1.414
 7338SOL    HW225809   2.534   2.624   1.434
 7339SOL     OW25810   3.355   3.629   0.959
 7339SOL    HW125811   3.388   3.693   0.890
 7339SOL    HW225812   3.421   3.623   1.034
 7340SOL     OW25813   2.578   2.427   1.708
 7340SOL    HW125814   2.597   2.492   1.782
 7340SOL    HW225815   2.638   2.347   1.717
 7341SOL     OW25816   3.312   3.082   1.633
 7341SOL    HW125817   3.303   3.072   1.732
 7341SOL    HW225818   3.408   3.075   1.607
 7342SOL     OW25819   2.252   3.603   1.560
 7342SOL    HW125820   2.161   3.644   1.558
 7342SOL    HW225821   2.245   3.509   1.592
 7343SOL     OW25822   3.536   2.745   1.254
 7343SOL    HW125823   3.509   2.656   1.217
 7343SOL    HW225824   3.537   2.813   1.181
 7344SOL     OW25825   3.087   2.187   0.449
 7344SOL    HW125826   3.152   2.113   0.438
 7344SOL    HW225827   3.107   2.237   0.533
 7345SOL     OW25828   2.456   2.607   0.652
 7345SOL    HW125829   2.506   2.692   0.633
 7345SOL    HW225830   2.368   2.609   0.604
 7346SOL     OW25831   3.639   2.204   1.642
 7346SOL    HW125832   3.622   2.235   1.548
 7346SOL    HW225833   3.555   2.167   1.680
 7347SOL     OW25834   3.592   2.796   1.517
 7347SOL    HW125835   3.630   2.887   1.532
 7347SOL    HW225836   3.584   2.779   1.418
 7348SOL     OW25837   2.721   3.236   0.016
 7348SOL    HW125838   2.675   3.251   0.104
 7348SOL    HW225839   2.765   3.321  -0.014
 7349SOL     OW25840   2.523   3.652   0.953
 7349SOL    HW125841   2.477   3.740   0.940
 7349SOL    HW225842   2.622   3.664   0.946
 7350SOL     OW25843   2.721   2.818   0.861
 7350SOL    HW125844   2.775   2.749   0.909
 7350SOL    HW225845   2.689   2.887   0.927
 7351SOL     OW25846   2.945   2.846   0.087
 7351SOL    HW125847   2.922   2.899   0.005
 7351SOL    HW225848   3.026   2.790   0.068
 7352SOL     OW25849   3.723   3.431   0.851
 7352SOL    HW125850   3.652   3.419   0.781
 7352SOL    HW225851   3.724   3.352   0.911
 7353SOL     OW25852   2.083   3.176   1.844
 7353SOL    HW125853   2.018   3.103   1.823
 7353SOL    HW225854   2.087   3.190   1.942
 7354SOL     OW25855   1.941   3.102   0.653
 7354SOL    HW125856   1.940   3.055   0.741
 7354SOL    HW225857   2.023   3.074   0.602
 7355SOL     OW25858   2.534   3.253   1.624
 7355SOL    HW125859   2.456   3.203   1.662
 7355SOL    HW225860   2.531   3.348   1.655
 7356SOL     OW25861   3.686   2.054   1.227
 7356SOL    HW125862   3.682   1.964   1.271
 7356SOL    HW225863   3.689   2.043   1.128
 7357SOL     OW25864   2.290   2.286   0.520
 7357SOL    HW125865   2.320   2.214   0.458
 7357SOL    HW225866   2.251   2.246   0.603
 7358SOL     OW25867   3.567   3.349   1.104
 7358SOL    HW125868   3.474   3.324   1.077
 7358SOL    HW225869   3.593   3.299   1.186
 7359SOL     OW25870   2.179   2.409   1.280
 7359SOL    HW125871   2.217   2.350   1.352
 7359SOL    HW225872   2.219   2.383   1.192
 7360SOL     OW25873   2.674   3.448   0.687
 7360SOL    HW125874   2.706   3.458   0.593
 7360SOL    HW225875   2.595   3.386   0.689
 7361SOL     OW25876   3.286   2.076   1.112
 7361SOL    HW125877   3.338   2.011   1.167
 7361SOL    HW225878   3.237   2.139   1.173
 7362SOL     OW25879   2.863   1.896   1.154
 7362SOL    HW125880   2.800   1.824   1.123
 7362SOL    HW225881   2.956   1.860   1.154
 7363SOL     OW25882   2.632   3.192   0.301
 7363SOL    HW125883   2.586   3.105   0.318
 7363SOL    HW225884   2.723   3.189   0.342
 7364SOL     OW25885   2.480   3.429   1.284
 7364SOL    HW125886   2.475   3.511   1.341
 7364SOL    HW225887   2.569   3.426   1.239
 7365SOL     OW25888   3.214   1.914   0.168
 7365SOL    HW125889   3.249   1.873   0.084
 7365SOL    HW225890   3.124   1.876   0.188
 7366SOL     OW25891   3.162   2.315   0.691
 7366SOL    HW125892   3.103   2.395   0.695
 7366SOL    HW225893   3.177   2.280   0.784
 7367SOL     OW25894   3.455   2.083   0.882
 7367SOL    HW125895   3.371   2.082   0.936
 7367SOL    HW225896   3.457   2.166   0.826
 7368SOL     OW25897   1.901   2.939   0.300
 7368SOL    HW125898   2.000   2.928   0.291
 7368SOL    HW225899   1.861   2.853   0.332
 7369SOL     OW25900   2.737   3.508   0.337
 7369SOL    HW125901   2.660   3.473   0.283
 7369SOL    HW225902   2.705   3.579   0.399
 7370SOL     OW25903   2.092   2.490   1.975
 7370SOL    HW125904   1.999   2.488   2.012
 7370SOL    HW225905   2.093   2.451   1.883
 7371SOL     OW25906   2.087   2.137   2.858
 7371SOL    HW125907   2.122   2.120   2.950
 7371SOL    HW225908   1.999   2.092   2.846
 7372SOL     OW25909   1.881   2.230   2.509
 7372SOL    HW125910   1.799   2.273   2.548
 7372SOL    HW225911   1.853   2.157   2.446
 7373SOL     OW25912   2.431   3.137   3.027
 7373SOL    HW125913   2.338   3.130   2.990
 7373SOL    HW225914   2.442   3.226   3.071
 7374SOL     OW25915   3.417   3.373   2.565
 7374SOL    HW125916   3.360   3.357   2.646
 7374SOL    HW225917   3.358   3.383   2.485
 7375SOL     OW25918   2.997   2.565   2.579
 7375SOL    HW125919   3.054   2.643   2.554
 7375SOL    HW225920   2.937   2.591   2.655
 7376SOL     OW25921   3.617   2.469   2.093
 7376SOL    HW125922   3.605   2.456   1.994
 7376SOL    HW225923   3.587   2.388   2.142
 7377SOL     OW25924   2.630   3.006   2.885
 7377SOL    HW125925   2.552   3.023   2.945
 7377SOL    HW225926   2.664   3.093   2.849
 7378SOL     OW25927   2.712   2.660   3.685
 7378SOL    HW125928   2.708   2.736   3.750
 7378SOL    HW225929   2.734   2.696   3.594
 7379SOL     OW25930   2.547   2.874   2.527
 7379SOL    HW125931   2.616   2.858   2.597
 7379SOL    HW225932   2.474   2.931   2.565
 7380SOL     OW25933   2.548   3.023   3.665
 7380SOL    HW125934   2.608   3.102   3.679
 7380SOL    HW225935   2.462   3.054   3.624
 7381SOL     OW25936   2.197   3.297   2.923
 7381SOL    HW125937   2.119   3.266   2.870
 7381SOL    HW225938   2.255   3.355   2.866
 7382SOL     OW25939   3.322   3.367   3.201
 7382SOL    HW125940   3.346   3.461   3.227
 7382SOL    HW225941   3.306   3.313   3.283
 7383SOL     OW25942   2.300   2.254   3.361
 7383SOL    HW125943   2.382   2.198   3.370
 7383SOL    HW225944   2.219   2.196   3.365
 7384SOL     OW25945   3.465   2.309   2.599
 7384SOL    HW125946   3.391   2.355   2.549
 7384SOL    HW225947   3.516   2.377   2.652
 7385SOL     OW25948   2.093   3.575   2.345
 7385SOL    HW125949   2.127   3.652   2.399
 7385SOL    HW225950   2.137   3.575   2.255
 7386SOL     OW25951   2.989   3.203   3.552
 7386SOL    HW125952   3.036   3.203   3.640
 7386SOL    HW225953   2.941   3.116   3.541
 7387SOL     OW25954   2.092   3.296   2.400
 7387SOL    HW125955   2.066   3.392   2.400
 7387SOL    HW225956   2.021   3.242   2.445
 7388SOL     OW25957   2.482   3.648   3.301
 7388SOL    HW125958   2.390   3.631   3.336
 7388SOL    HW225959   2.510   3.740   3.327
 7389SOL     OW25960   2.468   2.826   1.985
 7389SOL    HW125961   2.475   2.910   1.931
 7389SOL    HW225962   2.514   2.839   2.073
 7390SOL     OW25963   3.456   1.976   3.342
 7390SOL    HW125964   3.438   2.043   3.270
 7390SOL    HW225965   3.453   2.022   3.431
 7391SOL     OW25966   1.984   2.505   2.425
 7391SOL    HW125967   1.939   2.417   2.442
 7391SOL    HW225968   1.983   2.559   2.509
 7392SOL     OW25969   3.704   3.629   2.221
 7392SOL    HW125970   3.758   3.600   2.301
 7392SOL    HW225971   3.734   3.719   2.192
 7393SOL     OW25972   1.889   3.458   1.979
 7393SOL    HW125973   1.870   3.362   2.000
 7393SOL    HW225974   1.856   3.516   2.054
 7394SOL     OW25975   3.551   2.784   2.474
 7394SOL    HW125976   3.646   2.755   2.482
 7394SOL    HW225977   3.543   2.849   2.399
 7395SOL     OW25978   3.503   2.970   2.294
 7395SOL    HW125979   3.589   2.972   2.242
 7395SOL    HW225980   3.517   3.017   2.382
 7396SOL     OW25981   1.975   2.599   3.459
 7396SOL    HW125982   2.063   2.586   3.504
 7396SOL    HW225983   1.962   2.696   3.437
 7397SOL     OW25984   2.475   3.227   2.588
 7397SOL    HW125985   2.426   3.140   2.597
 7397SOL    HW225986   2.452   3.270   2.501
 7398SOL     OW25987   3.155   3.090   3.285
 7398SOL    HW125988   3.192   3.017   3.227
 7398SOL    HW225989   3.207   3.095   3.370
 7399SOL     OW25990   2.671   1.866   2.364
 7399SOL    HW125991   2.711   1.957   2.355
 7399SOL    HW225992   2.571   1.874   2.370
 7400SOL     OW25993   3.387   2.861   2.052
 7400SOL    HW125994   3.324   2.785   2.065
 7400SOL    HW225995   3.435   2.879   2.138
 7401SOL     OW25996   3.049   3.654   3.478
 7401SOL    HW125997   3.073   3.714   3.402
 7401SOL    HW225998   3.056   3.559   3.448
 7402SOL     OW25999   2.179   2.113   3.663
 7402SOL    HW126000   2.250   2.184   3.669
 7402SOL    HW226001   2.091   2.152   3.691
 7403SOL     OW26002   3.328   3.279   2.815
 7403SOL    HW126003   3.269   3.285   2.895
 7403SOL    HW226004   3.313   3.191   2.769
 7404SOL     OW26005   3.529   3.576   2.434
 7404SOL    HW126006   3.488   3.553   2.346
 7404SOL    HW226007   3.511   3.502   2.499
 7405SOL     OW26008   2.460   2.591   2.132
 7405SOL    HW126009   2.484   2.660   2.064
 7405SOL    HW226010   2.382   2.624   2.186
 7406SOL     OW26011   3.143   2.207   2.806
 7406SOL    HW126012   3.057   2.157   2.793
 7406SOL    HW226013   3.205   2.153   2.862
 7407SOL     OW26014   3.438   3.524   2.169
 7407SOL    HW126015   3.527   3.570   2.172
 7407SOL    HW226016   3.417   3.500   2.074
 7408SOL     OW26017   2.669   2.467   3.327
 7408SOL    HW126018   2.622   2.464   3.416
 7408SOL    HW226019   2.618   2.412   3.261
 7409SOL     OW26020   3.256   2.331   3.536
 7409SOL    HW126021   3.236   2.374   3.624
 7409SOL    HW226022   3.334   2.269   3.545
 7410SOL     OW26023   2.835   2.752   3.434
 7410SOL    HW126024   2.881   2.668   3.405
 7410SOL    HW226025   2.779   2.786   3.359
 7411SOL     OW26026   2.853   2.272   3.104
 7411SOL    HW126027   2.776   2.306   3.158
 7411SOL    HW226028   2.819   2.221   3.025
 7412SOL     OW26029   2.903   2.563   2.291
 7412SOL    HW126030   2.929   2.559   2.387
 7412SOL    HW226031   2.818   2.512   2.277
 7413SOL     OW26032   1.938   2.673   2.651
 7413SOL    HW126033   2.037   2.661   2.660
 7413SOL    HW226034   1.914   2.768   2.672
 7414SOL     OW26035   1.992   3.683   3.433
 7414SOL    HW126036   1.982   3.668   3.532
 7414SOL    HW226037   1.906   3.719   3.397
 7415SOL     OW26038   2.727   2.210   2.057
 7415SOL    HW126039   2.786   2.273   2.008
 7415SOL    HW226040   2.746   2.116   2.028
 7416SOL     OW26041   3.581   2.447   3.693
 7416SOL    HW126042   3.555   2.536   3.657
 7416SOL    HW226043   3.579   2.379   3.620
 7417SOL     OW26044   3.224   3.006   2.407
 7417SOL    HW126045   3.307   2.977   2.359
 7417SOL    HW226046   3.175   3.073   2.351
 7418SOL     OW26047   2.412   2.058   2.747
 7418SOL    HW126048   2.407   2.053   2.847
 7418SOL    HW226049   2.414   2.154   2.718
 7419SOL     OW26050   2.870   3.318   2.339
 7419SOL    HW126051   2.824   3.390   2.287
 7419SOL    HW226052   2.866   3.338   2.437
 7420SOL     OW26053   2.213   3.663   2.715
 7420SOL    HW126054   2.263   3.577   2.721
 7420SOL    HW226055   2.278   3.740   2.712
 7421SOL     OW26056   3.657   2.928   2.735
 7421SOL    HW126057   3.595   2.913   2.659
 7421SOL    HW226058   3.605   2.939   2.820
 7422SOL     OW26059   3.089   3.412   3.368
 7422SOL    HW126060   3.095   3.335   3.432
 7422SOL    HW226061   3.037   3.386   3.288
 7423SOL     OW26062   2.183   2.805   2.104
 7423SOL    HW126063   2.265   2.844   2.062
 7423SOL    HW226064   2.156   2.723   2.055
 7424SOL     OW26065   3.320   2.597   2.590
 7424SOL    HW126066   3.315   2.532   2.665
 7424SOL    HW226067   3.400   2.656   2.603
 7425SOL     OW26068   2.323   3.128   3.589
 7425SOL    HW126069   2.273   3.129   3.503
 7425SOL    HW226070   2.260   3.110   3.665
 7426SOL     OW26071   2.973   3.638   2.099
 7426SOL    HW126072   2.913   3.576   2.149
 7426SOL    HW226073   3.004   3.594   2.014
 7427SOL     OW26074   2.064   2.147   3.360
 7427SOL    HW126075   1.984   2.207   3.347
 7427SOL    HW226076   2.054   2.098   3.446
 7428SOL     OW26077   3.494   3.239   1.943
 7428SOL    HW126078   3.462   3.333   1.933
 7428SOL    HW226079   3.418   3.176   1.931
 7429SOL     OW26080   2.326   3.605   2.185
 7429SOL    HW126081   2.359   3.644   2.271
 7429SOL    HW226082   2.402   3.598   2.120
 7430SOL     OW26083   3.262   1.969   2.288
 7430SOL    HW126084   3.238   1.932   2.198
 7430SOL    HW226085   3.361   1.985   2.292
 7431SOL     OW26086   2.111   3.647   3.103
 7431SOL    HW126087   2.168   3.582   3.153
 7431SOL    HW226088   2.095   3.614   3.010
 7432SOL     OW26089   2.802   3.560   2.766
 7432SOL    HW126090   2.882   3.503   2.787
 7432SOL    HW226091   2.753   3.520   2.689
 7433SOL     OW26092   2.244   2.562   2.342
 7433SOL    HW126093   2.289   2.472   2.339
 7433SOL    HW226094   2.150   2.551   2.375
 7434SOL     OW26095   3.409   2.084   3.591
 7434SOL    HW126096   3.404   2.121   3.683
 7434SOL    HW226097   3.337   2.015   3.579
 7435SOL     OW26098   2.476   1.984   1.979
 7435SOL    HW126099   2.574   1.962   1.986
 7435SOL    HW226100   2.445   1.967   1.886
 7436SOL     OW26101   2.643   2.126   3.611
 7436SOL    HW126102   2.710   2.065   3.654
 7436SOL    HW226103   2.570   2.145   3.676
 7437SOL     OW26104   2.750   3.376   3.057
 7437SOL    HW126105   2.727   3.351   2.963
 7437SOL    HW226106   2.811   3.307   3.096
 7438SOL     OW26107   3.213   2.452   3.295
 7438SOL    HW126108   3.241   2.409   3.380
 7438SOL    HW226109   3.238   2.548   3.296
 7439SOL     OW26110   2.665   3.264   2.786
 7439SOL    HW126111   2.755   3.278   2.744
 7439SOL    HW226112   2.594   3.266   2.715
 7440SOL     OW26113   2.784   2.365   2.761
 7440SOL    HW126114   2.759   2.356   2.665
 7440SOL    HW226115   2.832   2.283   2.792
 7441SOL     OW26116   2.401   1.926   2.374
 7441SOL    HW126117   2.320   1.927   2.432
 7441SOL    HW226118   2.404   2.009   2.319
 7442SOL     OW26119   3.296   3.050   1.903
 7442SOL    HW126120   3.328   2.974   1.960
 7442SOL    HW226121   3.204   3.077   1.933
 7443SOL     OW26122   2.159   1.897   2.033
 7443SOL    HW126123   2.208   1.981   2.012
 7443SOL    HW226124   2.221   1.832   2.078
 7444SOL     OW26125   2.797   2.098   2.342
 7444SOL    HW126126   2.749   2.139   2.264
 7444SOL    HW226127   2.896   2.096   2.323
 7445SOL     OW26128   2.938   2.545   3.326
 7445SOL    HW126129   2.858   2.484   3.329
 7445SOL    HW226130   3.019   2.492   3.302
 7446SOL     OW26131   3.089   3.432   2.655
 7446SOL    HW126132   3.110   3.506   2.590
 7446SOL    HW226133   3.157   3.432   2.728
 7447SOL     OW26134   2.321   3.014   2.603
 7447SOL    HW126135   2.250   2.987   2.668
 7447SOL    HW226136   2.295   2.986   2.510
 7448SOL     OW26137   3.133   3.659   2.453
 7448SOL    HW126138   3.177   3.723   2.389
 7448SOL    HW226139   3.083   3.711   2.523
 7449SOL     OW26140   2.894   2.411   1.878
 7449SOL    HW126141   2.853   2.493   1.839
 7449SOL    HW226142   2.958   2.437   1.951
 7450SOL     OW26143   1.940   2.418   3.248
 7450SOL    HW126144   2.032   2.417   3.207
 7450SOL    HW226145   1.934   2.492   3.315
 7451SOL     OW26146   2.423   2.084   3.009
 7451SOL    HW126147   2.461   2.000   3.046
 7451SOL    HW226148   2.335   2.103   3.053
 7452SOL     OW26149   2.728   2.316   2.504
 7452SOL    HW126150   2.696   2.388   2.442
 7452SOL    HW226151   2.752   2.235   2.451
 7453SOL     OW26152   2.879   1.901   2.615
 7453SOL    HW126153   2.807   1.906   2.546
 7453SOL    HW226154   2.855   1.832   2.684
 7454SOL     OW26155   3.291   3.035   2.729
 7454SOL    HW126156   3.236   2.951   2.722
 7454SOL    HW226157   3.317   3.064   2.637
 7455SOL     OW26158   3.328   2.452   2.854
 7455SOL    HW126159   3.298   2.357   2.861
 7455SOL    HW226160   3.401   2.468   2.920
 7456SOL     OW26161   3.719   2.695   2.239
 7456SOL    HW126162   3.761   2.631   2.303
 7456SOL    HW226163   3.681   2.644   2.161
 7457SOL     OW26164   2.350   3.247   2.036
 7457SOL    HW126165   2.263   3.232   2.083
 7457SOL    HW226166   2.333   3.273   1.941
 7458SOL     OW26167   3.526   3.142   2.519
 7458SOL    HW126168   3.625   3.150   2.533
 7458SOL    HW226169   3.481   3.226   2.550
 7459SOL     OW26170   3.252   2.437   1.940
 7459SOL    HW126171   3.198   2.416   2.021
 7459SOL    HW226172   3.343   2.396   1.949
 7460SOL     OW26173   2.389   2.118   2.190
 7460SOL    HW126174   2.416   2.059   2.115
 7460SOL    HW226175   2.389   2.213   2.159
 7461SOL     OW26176   3.616   3.085   3.450
 7461SOL    HW126177   3.707   3.046   3.437
 7461SOL    HW226178   3.624   3.181   3.474
 7462SOL     OW26179   2.926   3.209   3.202
 7462SOL    HW126180   2.846   3.186   3.257
 7462SOL    HW226181   3.009   3.183   3.251
 7463SOL     OW26182   3.454   3.491   3.487
 7463SOL    HW126183   3.481   3.525   3.397
 7463SOL    HW226184   3.533   3.453   3.533
 7464SOL     OW26185   2.973   3.057   2.962
 7464SOL    HW126186   2.933   3.101   3.043
 7464SOL    HW226187   2.932   3.094   2.879
 7465SOL     OW26188   3.500   2.961   2.941
 7465SOL    HW126189   3.505   3.042   3.000
 7465SOL    HW226190   3.414   2.963   2.890
 7466SOL     OW26191   2.777   1.951   3.264
 7466SOL    HW126192   2.802   1.931   3.169
 7466SOL    HW226193   2.849   2.007   3.306
 7467SOL     OW26194   2.842   2.978   3.581
 7467SOL    HW126195   2.743   2.984   3.591
 7467SOL    HW226196   2.865   2.898   3.525
 7468SOL     OW26197   2.567   2.912   2.230
 7468SOL    HW126198   2.553   2.919   2.329
 7468SOL    HW226199   2.651   2.861   2.212
 7469SOL     OW26200   3.136   2.248   3.124
 7469SOL    HW126201   3.157   2.322   3.188
 7469SOL    HW226202   3.047   2.265   3.081
 7470SOL     OW26203   1.926   3.426   3.193
 7470SOL    HW126204   1.880   3.508   3.159
 7470SOL    HW226205   2.024   3.445   3.202
 7471SOL     OW26206   2.229   2.962   2.363
 7471SOL    HW126207   2.222   3.045   2.307
 7471SOL    HW226208   2.233   2.882   2.303
 7472SOL     OW26209   2.428   2.399   2.727
 7472SOL    HW126210   2.440   2.465   2.653
 7472SOL    HW226211   2.474   2.433   2.810
 7473SOL     OW26212   3.114   3.210   2.250
 7473SOL    HW126213   3.164   3.287   2.290
 7473SOL    HW226214   3.019   3.212   2.282
 7474SOL     OW26215   3.134   3.307   3.004
 7474SOL    HW126216   3.181   3.320   3.091
 7474SOL    HW226217   3.068   3.233   3.013
 7475SOL     OW26218   3.444   2.501   2.334
 7475SOL    HW126219   3.413   2.562   2.407
 7475SOL    HW226220   3.494   2.553   2.265
 7476SOL     OW26221   2.216   3.372   3.191
 7476SOL    HW126222   2.195   3.328   3.104
 7476SOL    HW226223   2.313   3.398   3.194
 7477SOL     OW26224   2.264   2.613   3.460
 7477SOL    HW126225   2.332   2.668   3.413
 7477SOL    HW226226   2.304   2.525   3.487
 7478SOL     OW26227   3.449   2.641   3.532
 7478SOL    HW126228   3.357   2.679   3.527
 7478SOL    HW226229   3.509   2.688   3.467
 7479SOL     OW26230   2.875   1.967   3.632
 7479SOL    HW126231   2.881   2.052   3.580
 7479SOL    HW226232   2.907   1.891   3.575
 7480SOL     OW26233   2.366   1.912   3.602
 7480SOL    HW126234   2.324   1.855   3.532
 7480SOL    HW226235   2.300   1.981   3.634
 7481SOL     OW26236   3.222   2.724   2.907
 7481SOL    HW126237   3.147   2.724   2.841
 7481SOL    HW226238   3.259   2.632   2.916
 7482SOL     OW26239   3.071   2.387   2.137
 7482SOL    HW126240   3.084   2.303   2.191
 7482SOL    HW226241   3.042   2.461   2.197
 7483SOL     OW26242   2.169   2.075   3.093
 7483SOL    HW126243   2.146   2.112   3.183
 7483SOL    HW226244   2.139   1.980   3.087
 7484SOL     OW26245   1.899   3.172   3.144
 7484SOL    HW126246   1.952   3.123   3.212
 7484SOL    HW226247   1.921   3.270   3.149
 7485SOL     OW26248   2.594   2.496   2.926
 7485SOL    HW126249   2.653   2.470   2.850
 7485SOL    HW226250   2.566   2.592   2.915
 7486SOL     OW26251   3.590   2.797   3.716
 7486SOL    HW126252   3.544   2.790   3.627
 7486SOL    HW226253   3.528   2.841   3.782
 7487SOL     OW26254   2.169   1.925   2.480
 7487SOL    HW126255   2.158   2.019   2.513
 7487SOL    HW226256   2.164   1.862   2.557
 7488SOL     OW26257   3.484   2.229   2.236
 7488SOL    HW126258   3.486   2.153   2.300
 7488SOL    HW226259   3.436   2.306   2.276
 7489SOL     OW26260   2.885   2.628   2.828
 7489SOL    HW126261   2.900   2.649   2.924
 7489SOL    HW226262   2.855   2.533   2.819
 7490SOL     OW26263   2.842   3.435   3.562
 7490SOL    HW126264   2.822   3.479   3.474
 7490SOL    HW226265   2.881   3.344   3.546
 7491SOL     OW26266   3.721   3.380   3.467
 7491SOL    HW126267   3.735   3.407   3.372
 7491SOL    HW226268   3.804   3.402   3.520
 7492SOL     OW26269   2.212   2.760   3.666
 7492SOL    HW126270   2.288   2.804   3.714
 7492SOL    HW226271   2.247   2.713   3.584
 7493SOL     OW26272   3.402   2.136   1.987
 7493SOL    HW126273   3.341   2.061   2.010
 7493SOL    HW226274   3.424   2.188   2.070
 7494SOL     OW26275   3.165   2.700   1.904
 7494SOL    HW126276   3.199   2.607   1.919
 7494SOL    HW226277   3.183   2.727   1.809
 7495SOL     OW26278   2.930   3.195   2.711
 7495SOL    HW126279   2.937   3.111   2.656
 7495SOL    HW226280   2.992   3.264   2.675
 7496SOL     OW26281   2.201   2.371   2.868
 7496SOL    HW126282   2.149   2.288   2.851
 7496SOL    HW226283   2.278   2.376   2.804
 7497SOL     OW26284   3.000   2.242   3.540
 7497SOL    HW126285   2.955   2.305   3.604
 7497SOL    HW226286   3.093   2.273   3.523
 7498SOL     OW26287   3.022   2.069   3.339
 7498SOL    HW126288   3.022   2.133   3.416
 7498SOL    HW226289   3.050   2.117   3.256
 7499SOL     OW26290   1.870   3.188   2.062
 7499SOL    HW126291   1.777   3.209   2.031
 7499SOL    HW226292   1.880   3.089   2.075
 7500SOL     OW26293   1.950   3.663   2.789
 7500SOL    HW126294   1.908   3.577   2.762
 7500SOL    HW226295   2.044   3.666   2.755
 7501SOL     OW26296   2.366   3.430   2.772
 7501SOL    HW126297   2.432   3.504   2.781
 7501SOL    HW226298   2.410   3.351   2.730
 7502SOL     OW26299   2.864   2.658   3.100
 7502SOL    HW126300   2.905   2.626   3.186
 7502SOL    HW226301   2.768   2.631   3.097
 7503SOL     OW26302   2.051   2.382   3.584
 7503SOL    HW126303   2.110   2.342   3.514
 7503SOL    HW226304   1.993   2.453   3.543
 7504SOL     OW26305   3.231   2.812   3.522
 7504SOL    HW126306   3.270   2.901   3.542
 7504SOL    HW226307   3.241   2.792   3.425
 7505SOL     OW26308   2.677   2.434   2.187
 7505SOL    HW126309   2.684   2.345   2.141
 7505SOL    HW226310   2.583   2.468   2.179
 7506SOL     OW26311   3.519   2.466   3.068
 7506SOL    HW126312   3.481   2.397   3.130
 7506SOL    HW226313   3.601   2.430   3.024
 7507SOL     OW26314   2.114   3.426   3.606
 7507SOL    HW126315   2.084   3.483   3.682
 7507SOL    HW226316   2.107   3.329   3.632
 7508SOL     OW26317   2.533   2.326   3.131
 7508SOL    HW126318   2.499   2.237   3.101
 7508SOL    HW226319   2.559   2.380   3.051
 7509SOL     OW26320   2.792   3.540   3.327
 7509SOL    HW126321   2.768   3.522   3.232
 7509SOL    HW226322   2.822   3.634   3.337
 7510SOL     OW26323   2.335   2.362   2.053
 7510SOL    HW126324   2.396   2.442   2.057
 7510SOL    HW226325   2.240   2.393   2.060
 7511SOL     OW26326   2.021   2.999   3.328
 7511SOL    HW126327   2.043   2.938   3.404
 7511SOL    HW226328   2.031   2.950   3.242
 7512SOL     OW26329   3.209   2.921   3.096
 7512SOL    HW126330   3.233   2.858   3.022
 7512SOL    HW226331   3.119   2.961   3.078
 7513SOL     OW26332   3.164   2.717   2.171
 7513SOL    HW126333   3.078   2.686   2.213
 7513SOL    HW226334   3.160   2.703   2.072
 7514SOL     OW26335   3.621   3.609   3.016
 7514SOL    HW126336   3.682   3.639   2.943
 7514SOL    HW226337   3.583   3.520   2.994
 7515SOL     OW26338   3.114   3.593   2.990
 7515SOL    HW126339   3.198   3.598   2.936
 7515SOL    HW226340   3.091   3.497   3.008
 7516SOL     OW26341   1.945   3.120   2.884
 7516SOL    HW126342   1.940   3.119   2.984
 7516SOL    HW226343   1.862   3.079   2.846
 7517SOL     OW26344   2.550   3.524   3.578
 7517SOL    HW126345   2.494   3.605   3.587
 7517SOL    HW226346   2.602   3.528   3.492
 7518SOL     OW26347   3.588   1.997   2.385
 7518SOL    HW126348   3.661   1.980   2.318
 7518SOL    HW226349   3.557   1.910   2.423
 7519SOL     OW26350   3.250   3.435   2.339
 7519SOL    HW126351   3.317   3.447   2.265
 7519SOL    HW226352   3.210   3.524   2.362
 7520SOL     OW26353   1.992   3.656   3.713
 7520SOL    HW126354   1.951   3.582   3.766
 7520SOL    HW226355   2.056   3.707   3.771
 7521SOL     OW26356   3.142   2.789   2.534
 7521SOL    HW126357   3.202   2.708   2.536
 7521SOL    HW226358   3.182   2.858   2.474
 7522SOL     OW26359   2.692   3.135   3.284
 7522SOL    HW126360   2.687   3.168   3.379
 7522SOL    HW226361   2.606   3.154   3.238
 7523SOL     OW26362   2.534   3.478   2.016
 7523SOL    HW126363   2.543   3.488   1.917
 7523SOL    HW226364   2.494   3.389   2.037
 7524SOL     OW26365   3.512   3.582   3.256
 7524SOL    HW126366   3.565   3.592   3.172
 7524SOL    HW226367   3.485   3.672   3.290
 7525SOL     OW26368   3.703   2.037   2.825
 7525SOL    HW126369   3.742   1.952   2.789
 7525SOL    HW226370   3.605   2.039   2.806
 7526SOL     OW26371   2.125   2.188   2.582
 7526SOL    HW126372   2.046   2.239   2.548
 7526SOL    HW226373   2.116   2.173   2.680
 7527SOL     OW26374   3.056   3.474   1.893
 7527SOL    HW126375   3.062   3.381   1.930
 7527SOL    HW226376   2.997   3.474   1.813
 7528SOL     OW26377   2.684   2.864   3.234
 7528SOL    HW126378   2.724   2.863   3.142
 7528SOL    HW226379   2.694   2.956   3.274
 7529SOL     OW26380   2.778   2.772   2.153
 7529SOL    HW126381   2.841   2.810   2.085
 7529SOL    HW226382   2.818   2.689   2.192
 7530SOL     OW26383   3.366   3.469   1.906
 7530SOL    HW126384   3.274   3.506   1.913
 7530SOL    HW226385   3.404   3.489   1.816
 7531SOL     OW26386   2.234   3.150   3.352
 7531SOL    HW126387   2.221   3.243   3.318
 7531SOL    HW226388   2.150   3.098   3.339
 7532SOL     OW26389   3.476   3.154   3.151
 7532SOL    HW126390   3.536   3.157   3.231
 7532SOL    HW226391   3.401   3.218   3.164
 7533SOL     OW26392   2.901   2.960   2.558
 7533SOL    HW126393   2.831   2.913   2.612
 7533SOL    HW226394   2.960   2.892   2.515
 7534SOL     OW26395   2.876   2.098   2.833
 7534SOL    HW126396   2.868   2.062   2.740
 7534SOL    HW226397   2.874   2.022   2.898
 7535SOL     OW26398   2.452   3.349   2.353
 7535SOL    HW126399   2.494   3.291   2.283
 7535SOL    HW226400   2.408   3.428   2.309
 7536SOL     OW26401   3.571   2.247   3.243
 7536SOL    HW126402   3.644   2.316   3.247
 7536SOL    HW226403   3.599   2.172   3.184
 7537SOL     OW26404   2.117   3.210   2.152
 7537SOL    HW126405   2.021   3.211   2.125
 7537SOL    HW226406   2.129   3.263   2.236
 7538SOL     OW26407   1.967   2.875   3.588
 7538SOL    HW126408   1.890   2.842   3.642
 7538SOL    HW226409   2.052   2.845   3.630
 7539SOL     OW26410   2.534   2.065   3.351
 7539SOL    HW126411   2.624   2.049   3.311
 7539SOL    HW226412   2.542   2.070   3.450
 7540SOL     OW26413   1.937   2.207   1.895
 7540SOL    HW126414   1.845   2.179   1.866
 7540SOL    HW226415   1.968   2.284   1.839
 7541SOL     OW26416   3.302   2.718   3.260
 7541SOL    HW126417   3.245   2.770   3.197
 7541SOL    HW226418   3.398   2.730   3.236
 7542SOL     OW26419   1.934   2.028   2.180
 7542SOL    HW126420   1.917   2.111   2.126
 7542SOL    HW226421   2.024   1.991   2.158
 7543SOL     OW26422   3.045   3.197   1.981
 7543SOL    HW126423   2.946   3.186   1.983
 7543SOL    HW226424   3.079   3.212   2.074
 7544SOL     OW26425   2.475   2.704   3.293
 7544SOL    HW126426   2.531   2.785   3.276
 7544SOL    HW226427   2.534   2.624   3.296
 7545SOL     OW26428   3.355   3.629   2.821
 7545SOL    HW126429   3.388   3.693   2.752
 7545SOL    HW226430   3.421   3.623   2.896
 7546SOL     OW26431   2.578   2.427   3.570
 7546SOL    HW126432   2.597   2.492   3.644
 7546SOL    HW226433   2.638   2.347   3.579
 7547SOL     OW26434   3.312   3.082   3.495
 7547SOL    HW126435   3.303   3.072   3.594
 7547SOL    HW226436   3.408   3.075   3.469
 7548SOL     OW26437   2.252   3.603   3.422
 7548SOL    HW126438   2.161   3.644   3.420
 7548SOL    HW226439   2.245   3.509   3.454
 7549SOL     OW26440   3.536   2.745   3.116
 7549SOL    HW126441   3.509   2.656   3.079
 7549SOL    HW226442   3.537   2.813   3.043
 7550SOL     OW26443   3.087   2.187   2.311
 7550SOL    HW126444   3.152   2.113   2.300
 7550SOL    HW226445   3.107   2.237   2.395
 7551SOL     OW26446   2.456   2.607   2.514
 7551SOL    HW126447   2.506   2.692   2.495
 7551SOL    HW226448   2.368   2.609   2.466
 7552SOL     OW26449   3.639   2.204   3.504
 7552SOL    HW126450   3.622   2.235   3.410
 7552SOL    HW226451   3.555   2.167   3.542
 7553SOL     OW26452   3.592   2.796   3.379
 7553SOL    HW126453   3.630   2.887   3.394
 7553SOL    HW226454   3.584   2.779   3.280
 7554SOL     OW26455   2.721   3.236   1.878
 7554SOL    HW126456   2.675   3.251   1.966
 7554SOL    HW226457   2.765   3.321   1.848
 7555SOL     OW26458   2.523   3.652   2.815
 7555SOL    HW126459   2.477   3.740   2.802
 7555SOL    HW226460   2.622   3.664   2.808
 7556SOL     OW26461   2.721   2.818   2.723
 7556SOL    HW126462   2.775   2.749   2.771
 7556SOL    HW226463   2.689   2.887   2.789
 7557SOL     OW26464   2.945   2.846   1.949
 7557SOL    HW126465   2.922   2.899   1.867
 7557SOL    HW226466   3.026   2.790   1.930
 7558SOL     OW26467   3.723   3.431   2.713
 7558SOL    HW126468   3.652   3.419   2.643
 7558SOL    HW226469   3.724   3.352   2.773
 7559SOL     OW26470   2.083   3.176   3.706
 7559SOL    HW126471   2.018   3.103   3.685
 7559SOL    HW226472   2.087   3.190   3.804
 7560SOL     OW26473   1.941   3.102   2.515
 7560SOL    HW126474   1.940   3.055   2.603
 7560SOL    HW226475   2.023   3.074   2.464
 7561SOL     OW26476   2.534   3.253   3.486
 7561SOL    HW126477   2.456   3.203   3.524
 7561SOL    HW226478   2.531   3.348   3.517
 7562SOL     OW26479   3.686   2.054   3.089
 7562SOL    HW126480   3.682   1.964   3.133
 7562SOL    HW226481   3.689   2.043   2.990
 7563SOL     OW26482   2.290   2.286   2.382
 7563SOL    HW126483   2.320   2.214   2.320
 7563SOL    HW226484   2.251   2.246   2.465
 7564SOL     OW26485   3.567   3.349   2.966
 7564SOL    HW126486   3.474   3.324   2.939
 7564SOL    HW226487   3.593   3.299   3.048
 7565SOL     OW26488   2.179   2.409   3.142
 7565SOL    HW126489   2.217   2.350   3.214
 7565SOL    HW226490   2.219   2.383   3.054
 7566SOL     OW26491   2.674   3.448   2.549
 7566SOL    HW126492   2.706   3.458   2.455
 7566SOL    HW226493   2.595   3.386   2.551
 7567SOL     OW26494   2.863   1.896   3.016
 7567SOL    HW126495   2.800   1.824   2.985
 7567SOL    HW226496   2.956   1.860   3.016
 7568SOL     OW26497   2.632   3.192   2.163
 7568SOL    HW126498   2.586   3.105   2.180
 7568SOL    HW226499   2.723   3.189   2.204
 7569SOL     OW26500   2.480   3.429   3.146
 7569SOL    HW126501   2.475   3.511   3.203
 7569SOL    HW226502   2.569   3.426   3.101
 7570SOL     OW26503   3.214   1.914   2.030
 7570SOL    HW126504   3.249   1.873   1.946
 7570SOL    HW226505   3.124   1.876   2.050
 7571SOL     OW26506   3.162   2.315   2.553
 7571SOL    HW126507   3.103   2.395   2.557
 7571SOL    HW226508   3.177   2.280   2.646
 7572SOL     OW26509   3.455   2.083   2.744
 7572SOL    HW126510   3.371   2.082   2.798
 7572SOL    HW226511   3.457   2.166   2.688
 7573SOL     OW26512   1.901   2.939   2.162
 7573SOL    HW126513   2.000   2.928   2.153
 7573SOL    HW226514   1.861   2.853   2.194
 7574SOL     OW26515   2.737   3.508   2.199
 7574SOL    HW126516   2.660   3.473   2.145
 7574SOL    HW226517   2.705   3.579   2.261
 7575SOL     OW26518   2.092   2.490   3.837
 7575SOL    HW126519   1.999   2.488   3.874
 7575SOL    HW226520   2.093   2.451   3.745
 7576SOL     OW26521   2.087   2.137   4.720
 7576SOL    HW126522   2.122   2.120   4.812
 7576SOL    HW226523   1.999   2.092   4.708
 7577SOL     OW26524   1.881   2.230   4.371
 7577SOL    HW126525   1.799   2.273   4.410
 7577SOL    HW226526   1.853   2.157   4.308
 7578SOL     OW26527   3.417   3.373   4.427
 7578SOL    HW126528   3.360   3.357   4.508
 7578SOL    HW226529   3.358   3.383   4.347
 7579SOL     OW26530   2.997   2.565   4.441
 7579SOL    HW126531   3.054   2.643   4.416
 7579SOL    HW226532   2.937   2.591   4.517
 7580SOL     OW26533   3.617   2.469   3.955
 7580SOL    HW126534   3.605   2.456   3.856
 7580SOL    HW226535   3.587   2.388   4.004
 7581SOL     OW26536   2.630   3.006   4.747
 7581SOL    HW126537   2.552   3.023   4.807
 7581SOL    HW226538   2.664   3.093   4.711
 7582SOL     OW26539   2.712   2.660   5.547
 7582SOL    HW126540   2.708   2.736   5.612
 7582SOL    HW226541   2.734   2.696   5.456
 7583SOL     OW26542   2.547   2.874   4.389
 7583SOL    HW126543   2.616   2.858   4.459
 7583SOL    HW226544   2.474   2.931   4.427
 7584SOL     OW26545   2.548   3.023   5.527
 7584SOL    HW126546   2.608   3.102   5.541
 7584SOL    HW226547   2.462   3.054   5.486
 7585SOL     OW26548   3.322   3.367   5.063
 7585SOL    HW126549   3.346   3.461   5.089
 7585SOL    HW226550   3.306   3.313   5.145
 7586SOL     OW26551   2.300   2.254   5.223
 7586SOL    HW126552   2.382   2.198   5.232
 7586SOL    HW226553   2.219   2.196   5.227
 7587SOL     OW26554   3.465   2.309   4.461
 7587SOL    HW126555   3.391   2.355   4.411
 7587SOL    HW226556   3.516   2.377   4.514
 7588SOL     OW26557   2.093   3.575   4.207
 7588SOL    HW126558   2.127   3.652   4.261
 7588SOL    HW226559   2.137   3.575   4.117
 7589SOL     OW26560   2.989   3.203   5.414
 7589SOL    HW126561   3.036   3.203   5.502
 7589SOL    HW226562   2.941   3.116   5.403
 7590SOL     OW26563   2.092   3.296   4.262
 7590SOL    HW126564   2.066   3.392   4.262
 7590SOL    HW226565   2.021   3.242   4.307
 7591SOL     OW26566   2.482   3.648   5.163
 7591SOL    HW126567   2.390   3.631   5.198
 7591SOL    HW226568   2.510   3.740   5.189
 7592SOL     OW26569   2.468   2.826   3.847
 7592SOL    HW126570   2.475   2.910   3.793
 7592SOL    HW226571   2.514   2.839   3.935
 7593SOL     OW26572   3.456   1.976   5.204
 7593SOL    HW126573   3.438   2.043   5.132
 7593SOL    HW226574   3.453   2.022   5.293
 7594SOL     OW26575   1.984   2.505   4.287
 7594SOL    HW126576   1.939   2.417   4.304
 7594SOL    HW226577   1.983   2.559   4.371
 7595SOL     OW26578   3.704   3.629   4.083
 7595SOL    HW126579   3.758   3.600   4.163
 7595SOL    HW226580   3.734   3.719   4.054
 7596SOL     OW26581   1.889   3.458   3.841
 7596SOL    HW126582   1.870   3.362   3.862
 7596SOL    HW226583   1.856   3.516   3.916
 7597SOL     OW26584   3.551   2.784   4.336
 7597SOL    HW126585   3.646   2.755   4.344
 7597SOL    HW226586   3.543   2.849   4.261
 7598SOL     OW26587   3.503   2.970   4.156
 7598SOL    HW126588   3.589   2.972   4.104
 7598SOL    HW226589   3.517   3.017   4.244
 7599SOL     OW26590   1.975   2.599   5.321
 7599SOL    HW126591   2.063   2.586   5.366
 7599SOL    HW226592   1.962   2.696   5.299
 7600SOL     OW26593   3.155   3.090   5.147
 7600SOL    HW126594   3.192   3.017   5.089
 7600SOL    HW226595   3.207   3.095   5.232
 7601SOL     OW26596   2.671   1.866   4.226
 7601SOL    HW126597   2.711   1.957   4.217
 7601SOL    HW226598   2.571   1.874   4.232
 7602SOL     OW26599   2.059   2.838   4.988
 7602SOL    HW126600   2.148   2.793   4.974
 7602SOL    HW226601   1.986   2.773   4.969
 7603SOL     OW26602   3.387   2.861   3.914
 7603SOL    HW126603   3.324   2.785   3.927
 7603SOL    HW226604   3.435   2.879   4.000
 7604SOL     OW26605   3.049   3.654   5.340
 7604SOL    HW126606   3.073   3.714   5.264
 7604SOL    HW226607   3.056   3.559   5.310
 7605SOL     OW26608   2.179   2.113   5.525
 7605SOL    HW126609   2.250   2.184   5.531
 7605SOL    HW226610   2.091   2.152   5.553
 7606SOL     OW26611   3.328   3.279   4.677
 7606SOL    HW126612   3.269   3.285   4.757
 7606SOL    HW226613   3.313   3.191   4.631
 7607SOL     OW26614   3.529   3.576   4.296
 7607SOL    HW126615   3.488   3.553   4.208
 7607SOL    HW226616   3.511   3.502   4.361
 7608SOL     OW26617   2.460   2.591   3.994
 7608SOL    HW126618   2.484   2.660   3.926
 7608SOL    HW226619   2.382   2.624   4.048
 7609SOL     OW26620   3.143   2.207   4.668
 7609SOL    HW126621   3.057   2.157   4.655
 7609SOL    HW226622   3.205   2.153   4.724
 7610SOL     OW26623   3.438   3.524   4.031
 7610SOL    HW126624   3.527   3.570   4.034
 7610SOL    HW226625   3.417   3.500   3.936
 7611SOL     OW26626   2.669   2.467   5.189
 7611SOL    HW126627   2.622   2.464   5.278
 7611SOL    HW226628   2.618   2.412   5.123
 7612SOL     OW26629   3.256   2.331   5.398
 7612SOL    HW126630   3.236   2.374   5.486
 7612SOL    HW226631   3.334   2.269   5.407
 7613SOL     OW26632   2.835   2.752   5.296
 7613SOL    HW126633   2.881   2.668   5.267
 7613SOL    HW226634   2.779   2.786   5.221
 7614SOL     OW26635   2.853   2.272   4.966
 7614SOL    HW126636   2.776   2.306   5.020
 7614SOL    HW226637   2.819   2.221   4.887
 7615SOL     OW26638   2.903   2.563   4.153
 7615SOL    HW126639   2.929   2.559   4.249
 7615SOL    HW226640   2.818   2.512   4.139
 7616SOL     OW26641   1.938   2.673   4.513
 7616SOL    HW126642   2.037   2.661   4.522
 7616SOL    HW226643   1.914   2.768   4.534
 7617SOL     OW26644   1.992   3.683   5.295
 7617SOL    HW126645   1.982   3.668   5.394
 7617SOL    HW226646   1.906   3.719   5.259
 7618SOL     OW26647   2.727   2.210   3.919
 7618SOL    HW126648   2.786   2.273   3.870
 7618SOL    HW226649   2.746   2.116   3.890
 7619SOL     OW26650   3.581   2.447   5.555
 7619SOL    HW126651   3.555   2.536   5.519
 7619SOL    HW226652   3.579   2.379   5.482
 7620SOL     OW26653   3.224   3.006   4.269
 7620SOL    HW126654   3.307   2.977   4.221
 7620SOL    HW226655   3.175   3.073   4.213
 7621SOL     OW26656   2.412   2.058   4.609
 7621SOL    HW126657   2.407   2.053   4.709
 7621SOL    HW226658   2.414   2.154   4.580
 7622SOL     OW26659   2.870   3.318   4.201
 7622SOL    HW126660   2.824   3.390   4.149
 7622SOL    HW226661   2.866   3.338   4.299
 7623SOL     OW26662   2.213   3.663   4.577
 7623SOL    HW126663   2.263   3.577   4.583
 7623SOL    HW226664   2.278   3.740   4.574
 7624SOL     OW26665   3.657   2.928   4.597
 7624SOL    HW126666   3.595   2.913   4.521
 7624SOL    HW226667   3.605   2.939   4.682
 7625SOL     OW26668   3.089   3.412   5.230
 7625SOL    HW126669   3.095   3.335   5.294
 7625SOL    HW226670   3.037   3.386   5.150
 7626SOL     OW26671   2.183   2.805   3.966
 7626SOL    HW126672   2.265   2.844   3.924
 7626SOL    HW226673   2.156   2.723   3.917
 7627SOL     OW26674   3.320   2.597   4.452
 7627SOL    HW126675   3.315   2.532   4.527
 7627SOL    HW226676   3.400   2.656   4.465
 7628SOL     OW26677   2.323   3.128   5.451
 7628SOL    HW126678   2.273   3.129   5.365
 7628SOL    HW226679   2.260   3.110   5.527
 7629SOL     OW26680   2.973   3.638   3.961
 7629SOL    HW126681   2.913   3.576   4.011
 7629SOL    HW226682   3.004   3.594   3.876
 7630SOL     OW26683   2.064   2.147   5.222
 7630SOL    HW126684   1.984   2.207   5.209
 7630SOL    HW226685   2.054   2.098   5.308
 7631SOL     OW26686   3.494   3.239   3.805
 7631SOL    HW126687   3.462   3.333   3.795
 7631SOL    HW226688   3.418   3.176   3.793
 7632SOL     OW26689   2.326   3.605   4.047
 7632SOL    HW126690   2.359   3.644   4.133
 7632SOL    HW226691   2.402   3.598   3.982
 7633SOL     OW26692   3.262   1.969   4.150
 7633SOL    HW126693   3.238   1.932   4.060
 7633SOL    HW226694   3.361   1.985   4.154
 7634SOL     OW26695   2.111   3.647   4.965
 7634SOL    HW126696   2.168   3.582   5.015
 7634SOL    HW226697   2.095   3.614   4.872
 7635SOL     OW26698   2.802   3.560   4.628
 7635SOL    HW126699   2.882   3.503   4.649
 7635SOL    HW226700   2.753   3.520   4.551
 7636SOL     OW26701   2.244   2.562   4.204
 7636SOL    HW126702   2.289   2.472   4.201
 7636SOL    HW226703   2.150   2.551   4.237
 7637SOL     OW26704   3.409   2.084   5.453
 7637SOL    HW126705   3.404   2.121   5.545
 7637SOL    HW226706   3.337   2.015   5.441
 7638SOL     OW26707   2.476   1.984   3.841
 7638SOL    HW126708   2.574   1.962   3.848
 7638SOL    HW226709   2.445   1.967   3.748
 7639SOL     OW26710   2.643   2.126   5.473
 7639SOL    HW126711   2.710   2.065   5.516
 7639SOL    HW226712   2.570   2.145   5.538
 7640SOL     OW26713   2.750   3.376   4.919
 7640SOL    HW126714   2.727   3.351   4.825
 7640SOL    HW226715   2.811   3.307   4.958
 7641SOL     OW26716   3.213   2.452   5.157
 7641SOL    HW126717   3.241   2.409   5.242
 7641SOL    HW226718   3.238   2.548   5.158
 7642SOL     OW26719   2.665   3.264   4.648
 7642SOL    HW126720   2.755   3.278   4.606
 7642SOL    HW226721   2.594   3.266   4.577
 7643SOL     OW26722   2.784   2.365   4.623
 7643SOL    HW126723   2.759   2.356   4.527
 7643SOL    HW226724   2.832   2.283   4.654
 7644SOL     OW26725   2.401   1.926   4.236
 7644SOL    HW126726   2.320   1.927   4.294
 7644SOL    HW226727   2.404   2.009   4.181
 7645SOL     OW26728   3.296   3.050   3.765
 7645SOL    HW126729   3.328   2.974   3.822
 7645SOL    HW226730   3.204   3.077   3.795
 7646SOL     OW26731   2.159   1.897   3.895
 7646SOL    HW126732   2.208   1.981   3.874
 7646SOL    HW226733   2.221   1.832   3.940
 7647SOL     OW26734   2.797   2.098   4.204
 7647SOL    HW126735   2.749   2.139   4.126
 7647SOL    HW226736   2.896   2.096   4.185
 7648SOL     OW26737   2.938   2.545   5.188
 7648SOL    HW126738   2.858   2.484   5.191
 7648SOL    HW226739   3.019   2.492   5.164
 7649SOL     OW26740   3.089   3.432   4.517
 7649SOL    HW126741   3.110   3.506   4.452
 7649SOL    HW226742   3.157   3.432   4.590
 7650SOL     OW26743   3.133   3.659   4.315
 7650SOL    HW126744   3.177   3.723   4.251
 7650SOL    HW226745   3.083   3.711   4.385
 7651SOL     OW26746   2.894   2.411   3.740
 7651SOL    HW126747   2.853   2.493   3.701
 7651SOL    HW226748   2.958   2.437   3.813
 7652SOL     OW26749   1.940   2.418   5.110
 7652SOL    HW126750   2.032   2.417   5.069
 7652SOL    HW226751   1.934   2.492   5.177
 7653SOL     OW26752   2.423   2.084   4.871
 7653SOL    HW126753   2.461   2.000   4.908
 7653SOL    HW226754   2.335   2.103   4.915
 7654SOL     OW26755   2.728   2.316   4.366
 7654SOL    HW126756   2.696   2.388   4.304
 7654SOL    HW226757   2.752   2.235   4.313
 7655SOL     OW26758   2.879   1.901   4.477
 7655SOL    HW126759   2.807   1.906   4.408
 7655SOL    HW226760   2.855   1.832   4.546
 7656SOL     OW26761   3.291   3.035   4.591
 7656SOL    HW126762   3.236   2.951   4.584
 7656SOL    HW226763   3.317   3.064   4.499
 7657SOL     OW26764   3.328   2.452   4.716
 7657SOL    HW126765   3.298   2.357   4.723
 7657SOL    HW226766   3.401   2.468   4.782
 7658SOL     OW26767   3.719   2.695   4.101
 7658SOL    HW126768   3.761   2.631   4.165
 7658SOL    HW226769   3.681   2.644   4.023
 7659SOL     OW26770   2.350   3.247   3.898
 7659SOL    HW126771   2.263   3.232   3.945
 7659SOL    HW226772   2.333   3.273   3.803
 7660SOL     OW26773   3.526   3.142   4.381
 7660SOL    HW126774   3.625   3.150   4.395
 7660SOL    HW226775   3.481   3.226   4.412
 7661SOL     OW26776   3.252   2.437   3.802
 7661SOL    HW126777   3.198   2.416   3.883
 7661SOL    HW226778   3.343   2.396   3.811
 7662SOL     OW26779   2.389   2.118   4.052
 7662SOL    HW126780   2.416   2.059   3.977
 7662SOL    HW226781   2.389   2.213   4.021
 7663SOL     OW26782   3.616   3.085   5.312
 7663SOL    HW126783   3.707   3.046   5.299
 7663SOL    HW226784   3.624   3.181   5.336
 7664SOL     OW26785   2.926   3.209   5.064
 7664SOL    HW126786   2.846   3.186   5.119
 7664SOL    HW226787   3.009   3.183   5.113
 7665SOL     OW26788   3.454   3.491   5.349
 7665SOL    HW126789   3.481   3.525   5.259
 7665SOL    HW226790   3.533   3.453   5.395
 7666SOL     OW26791   2.973   3.057   4.824
 7666SOL    HW126792   2.933   3.101   4.905
 7666SOL    HW226793   2.932   3.094   4.741
 7667SOL     OW26794   3.500   2.961   4.803
 7667SOL    HW126795   3.505   3.042   4.862
 7667SOL    HW226796   3.414   2.963   4.752
 7668SOL     OW26797   2.777   1.951   5.126
 7668SOL    HW126798   2.802   1.931   5.031
 7668SOL    HW226799   2.849   2.007   5.168
 7669SOL     OW26800   2.842   2.978   5.443
 7669SOL    HW126801   2.743   2.984   5.453
 7669SOL    HW226802   2.865   2.898   5.387
 7670SOL     OW26803   2.567   2.912   4.092
 7670SOL    HW126804   2.553   2.919   4.191
 7670SOL    HW226805   2.651   2.861   4.074
 7671SOL     OW26806   2.272   2.675   4.975
 7671SOL    HW126807   2.358   2.687   5.025
 7671SOL    HW226808   2.230   2.588   5.002
 7672SOL     OW26809   3.136   2.248   4.986
 7672SOL    HW126810   3.157   2.322   5.050
 7672SOL    HW226811   3.047   2.265   4.943
 7673SOL     OW26812   1.926   3.426   5.055
 7673SOL    HW126813   1.880   3.508   5.021
 7673SOL    HW226814   2.024   3.445   5.064
 7674SOL     OW26815   2.229   2.962   4.225
 7674SOL    HW126816   2.222   3.045   4.169
 7674SOL    HW226817   2.233   2.882   4.165
 7675SOL     OW26818   2.428   2.399   4.589
 7675SOL    HW126819   2.440   2.465   4.515
 7675SOL    HW226820   2.474   2.433   4.672
 7676SOL     OW26821   3.114   3.210   4.112
 7676SOL    HW126822   3.164   3.287   4.152
 7676SOL    HW226823   3.019   3.212   4.144
 7677SOL     OW26824   3.134   3.307   4.866
 7677SOL    HW126825   3.181   3.320   4.953
 7677SOL    HW226826   3.068   3.233   4.875
 7678SOL     OW26827   3.444   2.501   4.196
 7678SOL    HW126828   3.413   2.562   4.269
 7678SOL    HW226829   3.494   2.553   4.127
 7679SOL     OW26830   2.264   2.613   5.322
 7679SOL    HW126831   2.332   2.668   5.275
 7679SOL    HW226832   2.304   2.525   5.349
 7680SOL     OW26833   3.449   2.641   5.394
 7680SOL    HW126834   3.357   2.679   5.389
 7680SOL    HW226835   3.509   2.688   5.329
 7681SOL     OW26836   2.875   1.967   5.494
 7681SOL    HW126837   2.881   2.052   5.442
 7681SOL    HW226838   2.907   1.891   5.437
 7682SOL     OW26839   2.366   1.912   5.464
 7682SOL    HW126840   2.324   1.855   5.394
 7682SOL    HW226841   2.300   1.981   5.496
 7683SOL     OW26842   2.435   2.732   4.753
 7683SOL    HW126843   2.479   2.821   4.744
 7683SOL    HW226844   2.372   2.732   4.830
 7684SOL     OW26845   3.222   2.724   4.769
 7684SOL    HW126846   3.147   2.724   4.703
 7684SOL    HW226847   3.259   2.632   4.778
 7685SOL     OW26848   3.071   2.387   3.999
 7685SOL    HW126849   3.084   2.303   4.053
 7685SOL    HW226850   3.042   2.461   4.059
 7686SOL     OW26851   2.169   2.075   4.955
 7686SOL    HW126852   2.146   2.112   5.045
 7686SOL    HW226853   2.139   1.980   4.949
 7687SOL     OW26854   1.899   3.172   5.006
 7687SOL    HW126855   1.952   3.123   5.074
 7687SOL    HW226856   1.921   3.270   5.011
 7688SOL     OW26857   2.594   2.496   4.788
 7688SOL    HW126858   2.653   2.470   4.712
 7688SOL    HW226859   2.566   2.592   4.777
 7689SOL     OW26860   3.590   2.797   5.578
 7689SOL    HW126861   3.544   2.790   5.489
 7689SOL    HW226862   3.528   2.841   5.644
 7690SOL     OW26863   2.169   1.925   4.342
 7690SOL    HW126864   2.158   2.019   4.375
 7690SOL    HW226865   2.164   1.862   4.419
 7691SOL     OW26866   3.484   2.229   4.098
 7691SOL    HW126867   3.486   2.153   4.162
 7691SOL    HW226868   3.436   2.306   4.138
 7692SOL     OW26869   2.885   2.628   4.690
 7692SOL    HW126870   2.900   2.649   4.786
 7692SOL    HW226871   2.855   2.533   4.681
 7693SOL     OW26872   2.842   3.435   5.424
 7693SOL    HW126873   2.822   3.479   5.336
 7693SOL    HW226874   2.881   3.344   5.408
 7694SOL     OW26875   3.721   3.380   5.329
 7694SOL    HW126876   3.735   3.407   5.234
 7694SOL    HW226877   3.804   3.402   5.382
 7695SOL     OW26878   2.212   2.760   5.528
 7695SOL    HW126879   2.288   2.804   5.576
 7695SOL    HW226880   2.247   2.713   5.446
 7696SOL     OW26881   3.402   2.136   3.849
 7696SOL    HW126882   3.341   2.061   3.872
 7696SOL    HW226883   3.424   2.188   3.932
 7697SOL     OW26884   3.165   2.700   3.766
 7697SOL    HW126885   3.199   2.607   3.781
 7697SOL    HW226886   3.183   2.727   3.671
 7698SOL     OW26887   2.930   3.195   4.573
 7698SOL    HW126888   2.937   3.111   4.518
 7698SOL    HW226889   2.992   3.264   4.537
 7699SOL     OW26890   2.181   2.672   4.673
 7699SOL    HW126891   2.274   2.708   4.678
 7699SOL    HW226892   2.175   2.587   4.725
 7700SOL     OW26893   2.201   2.371   4.730
 7700SOL    HW126894   2.149   2.288   4.713
 7700SOL    HW226895   2.278   2.376   4.666
 7701SOL     OW26896   3.000   2.242   5.402
 7701SOL    HW126897   2.955   2.305   5.466
 7701SOL    HW226898   3.093   2.273   5.385
 7702SOL     OW26899   3.022   2.069   5.201
 7702SOL    HW126900   3.022   2.133   5.278
 7702SOL    HW226901   3.050   2.117   5.118
 7703SOL     OW26902   1.870   3.188   3.924
 7703SOL    HW126903   1.777   3.209   3.893
 7703SOL    HW226904   1.880   3.089   3.937
 7704SOL     OW26905   1.950   3.663   4.651
 7704SOL    HW126906   1.908   3.577   4.624
 7704SOL    HW226907   2.044   3.666   4.617
 7705SOL     OW26908   2.366   3.430   4.634
 7705SOL    HW126909   2.432   3.504   4.643
 7705SOL    HW226910   2.410   3.351   4.592
 7706SOL     OW26911   2.864   2.658   4.962
 7706SOL    HW126912   2.905   2.626   5.048
 7706SOL    HW226913   2.768   2.631   4.959
 7707SOL     OW26914   1.902   2.406   4.838
 7707SOL    HW126915   1.987   2.373   4.797
 7707SOL    HW226916   1.915   2.421   4.936
 7708SOL     OW26917   2.051   2.382   5.446
 7708SOL    HW126918   2.110   2.342   5.376
 7708SOL    HW226919   1.993   2.453   5.405
 7709SOL     OW26920   3.231   2.812   5.384
 7709SOL    HW126921   3.270   2.901   5.404
 7709SOL    HW226922   3.241   2.792   5.287
 7710SOL     OW26923   2.677   2.434   4.049
 7710SOL    HW126924   2.684   2.345   4.003
 7710SOL    HW226925   2.583   2.468   4.041
 7711SOL     OW26926   3.519   2.466   4.930
 7711SOL    HW126927   3.481   2.397   4.992
 7711SOL    HW226928   3.601   2.430   4.886
 7712SOL     OW26929   2.114   3.426   5.468
 7712SOL    HW126930   2.084   3.483   5.544
 7712SOL    HW226931   2.107   3.329   5.494
 7713SOL     OW26932   2.533   2.326   4.993
 7713SOL    HW126933   2.499   2.237   4.963
 7713SOL    HW226934   2.559   2.380   4.913
 7714SOL     OW26935   2.792   3.540   5.189
 7714SOL    HW126936   2.768   3.522   5.094
 7714SOL    HW226937   2.822   3.634   5.199
 7715SOL     OW26938   2.335   2.362   3.915
 7715SOL    HW126939   2.396   2.442   3.919
 7715SOL    HW226940   2.240   2.393   3.922
 7716SOL     OW26941   2.021   2.999   5.190
 7716SOL    HW126942   2.043   2.938   5.266
 7716SOL    HW226943   2.031   2.950   5.104
 7717SOL     OW26944   3.209   2.921   4.958
 7717SOL    HW126945   3.233   2.858   4.884
 7717SOL    HW226946   3.119   2.961   4.940
 7718SOL     OW26947   3.164   2.717   4.033
 7718SOL    HW126948   3.078   2.686   4.075
 7718SOL    HW226949   3.160   2.703   3.934
 7719SOL     OW26950   3.621   3.609   4.878
 7719SOL    HW126951   3.682   3.639   4.805
 7719SOL    HW226952   3.583   3.520   4.856
 7720SOL     OW26953   3.114   3.593   4.852
 7720SOL    HW126954   3.198   3.598   4.798
 7720SOL    HW226955   3.091   3.497   4.870
 7721SOL     OW26956   2.550   3.524   5.440
 7721SOL    HW126957   2.494   3.605   5.449
 7721SOL    HW226958   2.602   3.528   5.354
 7722SOL     OW26959   3.588   1.997   4.247
 7722SOL    HW126960   3.661   1.980   4.180
 7722SOL    HW226961   3.557   1.910   4.285
 7723SOL     OW26962   3.250   3.435   4.201
 7723SOL    HW126963   3.317   3.447   4.127
 7723SOL    HW226964   3.210   3.524   4.224
 7724SOL     OW26965   1.992   3.656   5.575
 7724SOL    HW126966   1.951   3.582   5.628
 7724SOL    HW226967   2.056   3.707   5.633
 7725SOL     OW26968   3.142   2.789   4.396
 7725SOL    HW126969   3.202   2.708   4.398
 7725SOL    HW226970   3.182   2.858   4.336
 7726SOL     OW26971   2.692   3.135   5.146
 7726SOL    HW126972   2.687   3.168   5.241
 7726SOL    HW226973   2.606   3.154   5.100
 7727SOL     OW26974   2.534   3.478   3.878
 7727SOL    HW126975   2.543   3.488   3.779
 7727SOL    HW226976   2.494   3.389   3.899
 7728SOL     OW26977   3.512   3.582   5.118
 7728SOL    HW126978   3.565   3.592   5.034
 7728SOL    HW226979   3.485   3.672   5.152
 7729SOL     OW26980   3.703   2.037   4.687
 7729SOL    HW126981   3.742   1.952   4.651
 7729SOL    HW226982   3.605   2.039   4.668
 7730SOL     OW26983   2.125   2.188   4.444
 7730SOL    HW126984   2.046   2.239   4.410
 7730SOL    HW226985   2.116   2.173   4.542
 7731SOL     OW26986   3.056   3.474   3.755
 7731SOL    HW126987   3.062   3.381   3.792
 7731SOL    HW226988   2.997   3.474   3.675
 7732SOL     OW26989   2.684   2.864   5.096
 7732SOL    HW126990   2.724   2.863   5.004
 7732SOL    HW226991   2.694   2.956   5.136
 7733SOL     OW26992   2.778   2.772   4.015
 7733SOL    HW126993   2.841   2.810   3.947
 7733SOL    HW226994   2.818   2.689   4.054
 7734SOL     OW26995   3.366   3.469   3.768
 7734SOL    HW126996   3.274   3.506   3.775
 7734SOL    HW226997   3.404   3.489   3.678
 7735SOL     OW26998   2.234   3.150   5.214
 7735SOL    HW126999   2.221   3.243   5.180
 7735SOL    HW227000   2.150   3.098   5.201
 7736SOL     OW27001   3.476   3.154   5.013
 7736SOL    HW127002   3.536   3.157   5.093
 7736SOL    HW227003   3.401   3.218   5.026
 7737SOL     OW27004   2.901   2.960   4.420
 7737SOL    HW127005   2.831   2.913   4.474
 7737SOL    HW227006   2.960   2.892   4.377
 7738SOL     OW27007   2.876   2.098   4.695
 7738SOL    HW127008   2.868   2.062   4.602
 7738SOL    HW227009   2.874   2.022   4.760
 7739SOL     OW27010   2.452   3.349   4.215
 7739SOL    HW127011   2.494   3.291   4.145
 7739SOL    HW227012   2.408   3.428   4.171
 7740SOL     OW27013   3.571   2.247   5.105
 7740SOL    HW127014   3.644   2.316   5.109
 7740SOL    HW227015   3.599   2.172   5.046
 7741SOL     OW27016   2.117   3.210   4.014
 7741SOL    HW127017   2.021   3.211   3.987
 7741SOL    HW227018   2.129   3.263   4.098
 7742SOL     OW27019   1.967   2.875   5.450
 7742SOL    HW127020   1.890   2.842   5.504
 7742SOL    HW227021   2.052   2.845   5.492
 7743SOL     OW27022   2.534   2.065   5.213
 7743SOL    HW127023   2.624   2.049   5.173
 7743SOL    HW227024   2.542   2.070   5.312
 7744SOL     OW27025   1.937   2.207   3.757
 7744SOL    HW127026   1.845   2.179   3.728
 7744SOL    HW227027   1.968   2.284   3.701
 7745SOL     OW27028   3.302   2.718   5.122
 7745SOL    HW127029   3.245   2.770   5.059
 7745SOL    HW227030   3.398   2.730   5.098
 7746SOL     OW27031   1.934   2.028   4.042
 7746SOL    HW127032   1.917   2.111   3.988
 7746SOL    HW227033   2.024   1.991   4.020
 7747SOL     OW27034   3.045   3.197   3.843
 7747SOL    HW127035   2.946   3.186   3.845
 7747SOL    HW227036   3.079   3.212   3.936
 7748SOL     OW27037   2.475   2.704   5.155
 7748SOL    HW127038   2.531   2.785   5.138
 7748SOL    HW227039   2.534   2.624   5.158
 7749SOL     OW27040   3.355   3.629   4.683
 7749SOL    HW127041   3.388   3.693   4.614
 7749SOL    HW227042   3.421   3.623   4.758
 7750SOL     OW27043   2.578   2.427   5.432
 7750SOL    HW127044   2.597   2.492   5.506
 7750SOL    HW227045   2.638   2.347   5.441
 7751SOL     OW27046   3.312   3.082   5.357
 7751SOL    HW127047   3.303   3.072   5.456
 7751SOL    HW227048   3.408   3.075   5.331
 7752SOL     OW27049   2.252   3.603   5.284
 7752SOL    HW127050   2.161   3.644   5.282
 7752SOL    HW227051   2.245   3.509   5.316
 7753SOL     OW27052   3.536   2.745   4.978
 7753SOL    HW127053   3.509   2.656   4.941
 7753SOL    HW227054   3.537   2.813   4.905
 7754SOL     OW27055   3.087   2.187   4.173
 7754SOL    HW127056   3.152   2.113   4.162
 7754SOL    HW227057   3.107   2.237   4.257
 7755SOL     OW27058   2.456   2.607   4.376
 7755SOL    HW127059   2.506   2.692   4.357
 7755SOL    HW227060   2.368   2.609   4.328
 7756SOL     OW27061   3.639   2.204   5.366
 7756SOL    HW127062   3.622   2.235   5.272
 7756SOL    HW227063   3.555   2.167   5.404
 7757SOL     OW27064   3.592   2.796   5.241
 7757SOL    HW127065   3.630   2.887   5.256
 7757SOL    HW227066   3.584   2.779   5.142
 7758SOL     OW27067   2.721   3.236   3.740
 7758SOL    HW127068   2.675   3.251   3.828
 7758SOL    HW227069   2.765   3.321   3.710
 7759SOL     OW27070   2.523   3.652   4.677
 7759SOL    HW127071   2.477   3.740   4.664
 7759SOL    HW227072   2.622   3.664   4.670
 7760SOL     OW27073   2.721   2.818   4.585
 7760SOL    HW127074   2.775   2.749   4.633
 7760SOL    HW227075   2.689   2.887   4.651
 7761SOL     OW27076   2.945   2.846   3.811
 7761SOL    HW127077   2.922   2.899   3.729
 7761SOL    HW227078   3.026   2.790   3.792
 7762SOL     OW27079   3.723   3.431   4.575
 7762SOL    HW127080   3.652   3.419   4.505
 7762SOL    HW227081   3.724   3.352   4.635
 7763SOL     OW27082   2.083   3.176   5.568
 7763SOL    HW127083   2.018   3.103   5.547
 7763SOL    HW227084   2.087   3.190   5.666
 7764SOL     OW27085   1.941   3.102   4.377
 7764SOL    HW127086   1.940   3.055   4.465
 7764SOL    HW227087   2.023   3.074   4.326
 7765SOL     OW27088   2.534   3.253   5.348
 7765SOL    HW127089   2.456   3.203   5.386
 7765SOL    HW227090   2.531   3.348   5.379
 7766SOL     OW27091   3.686   2.054   4.951
 7766SOL    HW127092   3.682   1.964   4.995
 7766SOL    HW227093   3.689   2.043   4.852
 7767SOL     OW27094   2.290   2.286   4.244
 7767SOL    HW127095   2.320   2.214   4.182
 7767SOL    HW227096   2.251   2.246   4.327
 7768SOL     OW27097   3.567   3.349   4.828
 7768SOL    HW127098   3.474   3.324   4.801
 7768SOL    HW227099   3.593   3.299   4.910
 7769SOL     OW27100   2.179   2.409   5.004
 7769SOL    HW127101   2.217   2.350   5.076
 7769SOL    HW227102   2.219   2.383   4.916
 7770SOL     OW27103   2.674   3.448   4.411
 7770SOL    HW127104   2.706   3.458   4.317
 7770SOL    HW227105   2.595   3.386   4.413
 7771SOL     OW27106   3.286   2.076   4.836
 7771SOL    HW127107   3.338   2.011   4.891
 7771SOL    HW227108   3.237   2.139   4.897
 7772SOL     OW27109   2.863   1.896   4.878
 7772SOL    HW127110   2.800   1.824   4.847
 7772SOL    HW227111   2.956   1.860   4.878
 7773SOL     OW27112   2.632   3.192   4.025
 7773SOL    HW127113   2.586   3.105   4.042
 7773SOL    HW227114   2.723   3.189   4.066
 7774SOL     OW27115   2.480   3.429   5.008
 7774SOL    HW127116   2.475   3.511   5.065
 7774SOL    HW227117   2.569   3.426   4.963
 7775SOL     OW27118   3.214   1.914   3.892
 7775SOL    HW127119   3.249   1.873   3.808
 7775SOL    HW227120   3.124   1.876   3.912
 7776SOL     OW27121   3.162   2.315   4.415
 7776SOL    HW127122   3.103   2.395   4.419
 7776SOL    HW227123   3.177   2.280   4.508
 7777SOL     OW27124   3.455   2.083   4.606
 7777SOL    HW127125   3.371   2.082   4.660
 7777SOL    HW227126   3.457   2.166   4.550
 7778SOL     OW27127   1.901   2.939   4.024
 7778SOL    HW127128   2.000   2.928   4.015
 7778SOL    HW227129   1.861   2.853   4.056
 7779SOL     OW27130   2.737   3.508   4.061
 7779SOL    HW127131   2.660   3.473   4.007
 7779SOL    HW227132   2.705   3.579   4.123
 7780SOL     OW27133   2.092   2.490   5.699
 7780SOL    HW127134   1.999   2.488   5.736
 7780SOL    HW227135   2.093   2.451   5.607
 7781SOL     OW27136   1.881   2.230   6.233
 7781SOL    HW127137   1.799   2.273   6.272
 7781SOL    HW227138   1.853   2.157   6.170
 7782SOL     OW27139   2.431   3.137   6.751
 7782SOL    HW127140   2.338   3.130   6.714
 7782SOL    HW227141   2.442   3.226   6.795
 7783SOL     OW27142   3.417   3.373   6.289
 7783SOL    HW127143   3.360   3.357   6.370
 7783SOL    HW227144   3.358   3.383   6.209
 7784SOL     OW27145   2.997   2.565   6.303
 7784SOL    HW127146   3.054   2.643   6.278
 7784SOL    HW227147   2.937   2.591   6.379
 7785SOL     OW27148   3.617   2.469   5.817
 7785SOL    HW127149   3.605   2.456   5.718
 7785SOL    HW227150   3.587   2.388   5.866
 7786SOL     OW27151   2.630   3.006   6.609
 7786SOL    HW127152   2.552   3.023   6.669
 7786SOL    HW227153   2.664   3.093   6.573
 7787SOL     OW27154   2.712   2.660   7.409
 7787SOL    HW127155   2.708   2.736   7.474
 7787SOL    HW227156   2.734   2.696   7.318
 7788SOL     OW27157   2.547   2.874   6.251
 7788SOL    HW127158   2.616   2.858   6.321
 7788SOL    HW227159   2.474   2.931   6.289
 7789SOL     OW27160   2.548   3.023   7.389
 7789SOL    HW127161   2.608   3.102   7.403
 7789SOL    HW227162   2.462   3.054   7.348
 7790SOL     OW27163   2.197   3.297   6.647
 7790SOL    HW127164   2.119   3.266   6.594
 7790SOL    HW227165   2.255   3.355   6.590
 7791SOL     OW27166   3.322   3.367   6.925
 7791SOL    HW127167   3.346   3.461   6.951
 7791SOL    HW227168   3.306   3.313   7.007
 7792SOL     OW27169   2.300   2.254   7.085
 7792SOL    HW127170   2.382   2.198   7.094
 7792SOL    HW227171   2.219   2.196   7.089
 7793SOL     OW27172   3.465   2.309   6.323
 7793SOL    HW127173   3.391   2.355   6.273
 7793SOL    HW227174   3.516   2.377   6.376
 7794SOL     OW27175   2.093   3.575   6.069
 7794SOL    HW127176   2.127   3.652   6.123
 7794SOL    HW227177   2.137   3.575   5.979
 7795SOL     OW27178   2.989   3.203   7.276
 7795SOL    HW127179   3.036   3.203   7.364
 7795SOL    HW227180   2.941   3.116   7.265
 7796SOL     OW27181   2.092   3.296   6.124
 7796SOL    HW127182   2.066   3.392   6.124
 7796SOL    HW227183   2.021   3.242   6.169
 7797SOL     OW27184   2.102   2.953   6.472
 7797SOL    HW127185   2.116   2.869   6.524
 7797SOL    HW227186   2.047   3.017   6.527
 7798SOL     OW27187   2.482   3.648   7.025
 7798SOL    HW127188   2.390   3.631   7.060
 7798SOL    HW227189   2.510   3.740   7.051
 7799SOL     OW27190   2.468   2.826   5.709
 7799SOL    HW127191   2.475   2.910   5.655
 7799SOL    HW227192   2.514   2.839   5.797
 7800SOL     OW27193   3.456   1.976   7.066
 7800SOL    HW127194   3.438   2.043   6.994
 7800SOL    HW227195   3.453   2.022   7.155
 7801SOL     OW27196   1.984   2.505   6.149
 7801SOL    HW127197   1.939   2.417   6.166
 7801SOL    HW227198   1.983   2.559   6.233
 7802SOL     OW27199   3.704   3.629   5.945
 7802SOL    HW127200   3.758   3.600   6.025
 7802SOL    HW227201   3.734   3.719   5.916
 7803SOL     OW27202   1.889   3.458   5.703
 7803SOL    HW127203   1.870   3.362   5.724
 7803SOL    HW227204   1.856   3.516   5.778
 7804SOL     OW27205   3.551   2.784   6.198
 7804SOL    HW127206   3.646   2.755   6.206
 7804SOL    HW227207   3.543   2.849   6.123
 7805SOL     OW27208   3.503   2.970   6.018
 7805SOL    HW127209   3.589   2.972   5.966
 7805SOL    HW227210   3.517   3.017   6.106
 7806SOL     OW27211   1.975   2.599   7.183
 7806SOL    HW127212   2.063   2.586   7.228
 7806SOL    HW227213   1.962   2.696   7.161
 7807SOL     OW27214   2.475   3.227   6.312
 7807SOL    HW127215   2.426   3.140   6.321
 7807SOL    HW227216   2.452   3.270   6.225
 7808SOL     OW27217   3.155   3.090   7.009
 7808SOL    HW127218   3.192   3.017   6.951
 7808SOL    HW227219   3.207   3.095   7.094
 7809SOL     OW27220   2.671   1.866   6.088
 7809SOL    HW127221   2.711   1.957   6.079
 7809SOL    HW227222   2.571   1.874   6.094
 7810SOL     OW27223   2.059   2.838   6.850
 7810SOL    HW127224   2.148   2.793   6.836
 7810SOL    HW227225   1.986   2.773   6.831
 7811SOL     OW27226   3.387   2.861   5.776
 7811SOL    HW127227   3.324   2.785   5.789
 7811SOL    HW227228   3.435   2.879   5.862
 7812SOL     OW27229   3.049   3.654   7.202
 7812SOL    HW127230   3.073   3.714   7.126
 7812SOL    HW227231   3.056   3.559   7.172
 7813SOL     OW27232   3.328   3.279   6.539
 7813SOL    HW127233   3.269   3.285   6.619
 7813SOL    HW227234   3.313   3.191   6.493
 7814SOL     OW27235   3.529   3.576   6.158
 7814SOL    HW127236   3.488   3.553   6.070
 7814SOL    HW227237   3.511   3.502   6.223
 7815SOL     OW27238   2.460   2.591   5.856
 7815SOL    HW127239   2.484   2.660   5.788
 7815SOL    HW227240   2.382   2.624   5.910
 7816SOL     OW27241   3.143   2.207   6.530
 7816SOL    HW127242   3.057   2.157   6.517
 7816SOL    HW227243   3.205   2.153   6.586
 7817SOL     OW27244   3.438   3.524   5.893
 7817SOL    HW127245   3.527   3.570   5.896
 7817SOL    HW227246   3.417   3.500   5.798
 7818SOL     OW27247   2.669   2.467   7.051
 7818SOL    HW127248   2.622   2.464   7.140
 7818SOL    HW227249   2.618   2.412   6.985
 7819SOL     OW27250   3.256   2.331   7.260
 7819SOL    HW127251   3.236   2.374   7.348
 7819SOL    HW227252   3.334   2.269   7.269
 7820SOL     OW27253   2.835   2.752   7.158
 7820SOL    HW127254   2.881   2.668   7.129
 7820SOL    HW227255   2.779   2.786   7.083
 7821SOL     OW27256   2.853   2.272   6.828
 7821SOL    HW127257   2.776   2.306   6.882
 7821SOL    HW227258   2.819   2.221   6.749
 7822SOL     OW27259   2.903   2.563   6.015
 7822SOL    HW127260   2.929   2.559   6.111
 7822SOL    HW227261   2.818   2.512   6.001
 7823SOL     OW27262   1.938   2.673   6.375
 7823SOL    HW127263   2.037   2.661   6.384
 7823SOL    HW227264   1.914   2.768   6.396
 7824SOL     OW27265   1.992   3.683   7.157
 7824SOL    HW127266   1.982   3.668   7.256
 7824SOL    HW227267   1.906   3.719   7.121
 7825SOL     OW27268   2.727   2.210   5.781
 7825SOL    HW127269   2.786   2.273   5.732
 7825SOL    HW227270   2.746   2.116   5.752
 7826SOL     OW27271   3.581   2.447   7.417
 7826SOL    HW127272   3.555   2.536   7.381
 7826SOL    HW227273   3.579   2.379   7.344
 7827SOL     OW27274   3.224   3.006   6.131
 7827SOL    HW127275   3.307   2.977   6.083
 7827SOL    HW227276   3.175   3.073   6.075
 7828SOL     OW27277   2.870   3.318   6.063
 7828SOL    HW127278   2.824   3.390   6.011
 7828SOL    HW227279   2.866   3.338   6.161
 7829SOL     OW27280   2.213   3.663   6.439
 7829SOL    HW127281   2.263   3.577   6.445
 7829SOL    HW227282   2.278   3.740   6.436
 7830SOL     OW27283   3.657   2.928   6.459
 7830SOL    HW127284   3.595   2.913   6.383
 7830SOL    HW227285   3.605   2.939   6.544
 7831SOL     OW27286   3.089   3.412   7.092
 7831SOL    HW127287   3.095   3.335   7.156
 7831SOL    HW227288   3.037   3.386   7.012
 7832SOL     OW27289   2.183   2.805   5.828
 7832SOL    HW127290   2.265   2.844   5.786
 7832SOL    HW227291   2.156   2.723   5.779
 7833SOL     OW27292   3.320   2.597   6.314
 7833SOL    HW127293   3.315   2.532   6.389
 7833SOL    HW227294   3.400   2.656   6.327
 7834SOL     OW27295   2.323   3.128   7.313
 7834SOL    HW127296   2.273   3.129   7.227
 7834SOL    HW227297   2.260   3.110   7.389
 7835SOL     OW27298   2.973   3.638   5.823
 7835SOL    HW127299   2.913   3.576   5.873
 7835SOL    HW227300   3.004   3.594   5.738
 7836SOL     OW27301   3.494   3.239   5.667
 7836SOL    HW127302   3.462   3.333   5.657
 7836SOL    HW227303   3.418   3.176   5.655
 7837SOL     OW27304   2.326   3.605   5.909
 7837SOL    HW127305   2.359   3.644   5.995
 7837SOL    HW227306   2.402   3.598   5.844
 7838SOL     OW27307   2.111   3.647   6.827
 7838SOL    HW127308   2.168   3.582   6.877
 7838SOL    HW227309   2.095   3.614   6.734
 7839SOL     OW27310   2.802   3.560   6.490
 7839SOL    HW127311   2.882   3.503   6.511
 7839SOL    HW227312   2.753   3.520   6.413
 7840SOL     OW27313   2.244   2.562   6.066
 7840SOL    HW127314   2.289   2.472   6.063
 7840SOL    HW227315   2.150   2.551   6.099
 7841SOL     OW27316   3.409   2.084   7.315
 7841SOL    HW127317   3.404   2.121   7.407
 7841SOL    HW227318   3.337   2.015   7.303
 7842SOL     OW27319   2.476   1.984   5.703
 7842SOL    HW127320   2.574   1.962   5.710
 7842SOL    HW227321   2.445   1.967   5.610
 7843SOL     OW27322   2.643   2.126   7.335
 7843SOL    HW127323   2.710   2.065   7.378
 7843SOL    HW227324   2.570   2.145   7.400
 7844SOL     OW27325   2.750   3.376   6.781
 7844SOL    HW127326   2.727   3.351   6.687
 7844SOL    HW227327   2.811   3.307   6.820
 7845SOL     OW27328   3.213   2.452   7.019
 7845SOL    HW127329   3.241   2.409   7.104
 7845SOL    HW227330   3.238   2.548   7.020
 7846SOL     OW27331   2.665   3.264   6.510
 7846SOL    HW127332   2.755   3.278   6.468
 7846SOL    HW227333   2.594   3.266   6.439
 7847SOL     OW27334   2.784   2.365   6.485
 7847SOL    HW127335   2.759   2.356   6.389
 7847SOL    HW227336   2.832   2.283   6.516
 7848SOL     OW27337   2.401   1.926   6.098
 7848SOL    HW127338   2.320   1.927   6.156
 7848SOL    HW227339   2.404   2.009   6.043
 7849SOL     OW27340   3.296   3.050   5.627
 7849SOL    HW127341   3.328   2.974   5.684
 7849SOL    HW227342   3.204   3.077   5.657
 7850SOL     OW27343   2.159   1.897   5.757
 7850SOL    HW127344   2.208   1.981   5.736
 7850SOL    HW227345   2.221   1.832   5.802
 7851SOL     OW27346   2.797   2.098   6.066
 7851SOL    HW127347   2.749   2.139   5.988
 7851SOL    HW227348   2.896   2.096   6.047
 7852SOL     OW27349   2.938   2.545   7.050
 7852SOL    HW127350   2.858   2.484   7.053
 7852SOL    HW227351   3.019   2.492   7.026
 7853SOL     OW27352   3.089   3.432   6.379
 7853SOL    HW127353   3.110   3.506   6.314
 7853SOL    HW227354   3.157   3.432   6.452
 7854SOL     OW27355   2.321   3.014   6.327
 7854SOL    HW127356   2.250   2.987   6.392
 7854SOL    HW227357   2.295   2.986   6.234
 7855SOL     OW27358   3.133   3.659   6.177
 7855SOL    HW127359   3.177   3.723   6.113
 7855SOL    HW227360   3.083   3.711   6.247
 7856SOL     OW27361   2.894   2.411   5.602
 7856SOL    HW127362   2.853   2.493   5.563
 7856SOL    HW227363   2.958   2.437   5.675
 7857SOL     OW27364   1.940   2.418   6.972
 7857SOL    HW127365   2.032   2.417   6.931
 7857SOL    HW227366   1.934   2.492   7.039
 7858SOL     OW27367   2.728   2.316   6.228
 7858SOL    HW127368   2.696   2.388   6.166
 7858SOL    HW227369   2.752   2.235   6.175
 7859SOL     OW27370   2.879   1.901   6.339
 7859SOL    HW127371   2.807   1.906   6.270
 7859SOL    HW227372   2.855   1.832   6.408
 7860SOL     OW27373   3.291   3.035   6.453
 7860SOL    HW127374   3.236   2.951   6.446
 7860SOL    HW227375   3.317   3.064   6.361
 7861SOL     OW27376   3.328   2.452   6.578
 7861SOL    HW127377   3.298   2.357   6.585
 7861SOL    HW227378   3.401   2.468   6.644
 7862SOL     OW27379   3.719   2.695   5.963
 7862SOL    HW127380   3.761   2.631   6.027
 7862SOL    HW227381   3.681   2.644   5.885
 7863SOL     OW27382   2.350   3.247   5.760
 7863SOL    HW127383   2.263   3.232   5.807
 7863SOL    HW227384   2.333   3.273   5.665
 7864SOL     OW27385   3.526   3.142   6.243
 7864SOL    HW127386   3.625   3.150   6.257
 7864SOL    HW227387   3.481   3.226   6.274
 7865SOL     OW27388   3.252   2.437   5.664
 7865SOL    HW127389   3.198   2.416   5.745
 7865SOL    HW227390   3.343   2.396   5.673
 7866SOL     OW27391   2.389   2.118   5.914
 7866SOL    HW127392   2.416   2.059   5.839
 7866SOL    HW227393   2.389   2.213   5.883
 7867SOL     OW27394   3.616   3.085   7.174
 7867SOL    HW127395   3.707   3.046   7.161
 7867SOL    HW227396   3.624   3.181   7.198
 7868SOL     OW27397   2.926   3.209   6.926
 7868SOL    HW127398   2.846   3.186   6.981
 7868SOL    HW227399   3.009   3.183   6.975
 7869SOL     OW27400   3.454   3.491   7.211
 7869SOL    HW127401   3.481   3.525   7.121
 7869SOL    HW227402   3.533   3.453   7.257
 7870SOL     OW27403   2.973   3.057   6.686
 7870SOL    HW127404   2.933   3.101   6.767
 7870SOL    HW227405   2.932   3.094   6.603
 7871SOL     OW27406   3.500   2.961   6.665
 7871SOL    HW127407   3.505   3.042   6.724
 7871SOL    HW227408   3.414   2.963   6.614
 7872SOL     OW27409   2.777   1.951   6.988
 7872SOL    HW127410   2.802   1.931   6.893
 7872SOL    HW227411   2.849   2.007   7.030
 7873SOL     OW27412   2.842   2.978   7.305
 7873SOL    HW127413   2.743   2.984   7.315
 7873SOL    HW227414   2.865   2.898   7.249
 7874SOL     OW27415   2.567   2.912   5.954
 7874SOL    HW127416   2.553   2.919   6.053
 7874SOL    HW227417   2.651   2.861   5.936
 7875SOL     OW27418   2.272   2.675   6.837
 7875SOL    HW127419   2.358   2.687   6.887
 7875SOL    HW227420   2.230   2.588   6.864
 7876SOL     OW27421   3.136   2.248   6.848
 7876SOL    HW127422   3.157   2.322   6.912
 7876SOL    HW227423   3.047   2.265   6.805
 7877SOL     OW27424   1.926   3.426   6.917
 7877SOL    HW127425   1.880   3.508   6.883
 7877SOL    HW227426   2.024   3.445   6.926
 7878SOL     OW27427   2.229   2.962   6.087
 7878SOL    HW127428   2.222   3.045   6.031
 7878SOL    HW227429   2.233   2.882   6.027
 7879SOL     OW27430   2.428   2.399   6.451
 7879SOL    HW127431   2.440   2.465   6.377
 7879SOL    HW227432   2.474   2.433   6.534
 7880SOL     OW27433   3.114   3.210   5.974
 7880SOL    HW127434   3.164   3.287   6.014
 7880SOL    HW227435   3.019   3.212   6.006
 7881SOL     OW27436   3.134   3.307   6.728
 7881SOL    HW127437   3.181   3.320   6.815
 7881SOL    HW227438   3.068   3.233   6.737
 7882SOL     OW27439   3.444   2.501   6.058
 7882SOL    HW127440   3.413   2.562   6.131
 7882SOL    HW227441   3.494   2.553   5.989
 7883SOL     OW27442   2.216   3.372   6.915
 7883SOL    HW127443   2.195   3.328   6.828
 7883SOL    HW227444   2.313   3.398   6.918
 7884SOL     OW27445   2.264   2.613   7.184
 7884SOL    HW127446   2.332   2.668   7.137
 7884SOL    HW227447   2.304   2.525   7.211
 7885SOL     OW27448   3.449   2.641   7.256
 7885SOL    HW127449   3.357   2.679   7.251
 7885SOL    HW227450   3.509   2.688   7.191
 7886SOL     OW27451   2.875   1.967   7.356
 7886SOL    HW127452   2.881   2.052   7.304
 7886SOL    HW227453   2.907   1.891   7.299
 7887SOL     OW27454   2.366   1.912   7.326
 7887SOL    HW127455   2.324   1.855   7.256
 7887SOL    HW227456   2.300   1.981   7.358
 7888SOL     OW27457   2.435   2.732   6.615
 7888SOL    HW127458   2.479   2.821   6.606
 7888SOL    HW227459   2.372   2.732   6.692
 7889SOL     OW27460   3.222   2.724   6.631
 7889SOL    HW127461   3.147   2.724   6.565
 7889SOL    HW227462   3.259   2.632   6.640
 7890SOL     OW27463   3.071   2.387   5.861
 7890SOL    HW127464   3.084   2.303   5.915
 7890SOL    HW227465   3.042   2.461   5.921
 7891SOL     OW27466   1.899   3.172   6.868
 7891SOL    HW127467   1.952   3.123   6.936
 7891SOL    HW227468   1.921   3.270   6.873
 7892SOL     OW27469   2.594   2.496   6.650
 7892SOL    HW127470   2.653   2.470   6.574
 7892SOL    HW227471   2.566   2.592   6.639
 7893SOL     OW27472   3.590   2.797   7.440
 7893SOL    HW127473   3.544   2.790   7.351
 7893SOL    HW227474   3.528   2.841   7.506
 7894SOL     OW27475   2.169   1.925   6.204
 7894SOL    HW127476   2.158   2.019   6.237
 7894SOL    HW227477   2.164   1.862   6.281
 7895SOL     OW27478   3.484   2.229   5.960
 7895SOL    HW127479   3.486   2.153   6.024
 7895SOL    HW227480   3.436   2.306   6.000
 7896SOL     OW27481   2.885   2.628   6.552
 7896SOL    HW127482   2.900   2.649   6.648
 7896SOL    HW227483   2.855   2.533   6.543
 7897SOL     OW27484   2.842   3.435   7.286
 7897SOL    HW127485   2.822   3.479   7.198
 7897SOL    HW227486   2.881   3.344   7.270
 7898SOL     OW27487   3.721   3.380   7.191
 7898SOL    HW127488   3.735   3.407   7.096
 7898SOL    HW227489   3.804   3.402   7.244
 7899SOL     OW27490   2.212   2.760   7.390
 7899SOL    HW127491   2.288   2.804   7.438
 7899SOL    HW227492   2.247   2.713   7.308
 7900SOL     OW27493   3.402   2.136   5.711
 7900SOL    HW127494   3.341   2.061   5.734
 7900SOL    HW227495   3.424   2.188   5.794
 7901SOL     OW27496   3.165   2.700   5.628
 7901SOL    HW127497   3.199   2.607   5.643
 7901SOL    HW227498   3.183   2.727   5.533
 7902SOL     OW27499   2.930   3.195   6.435
 7902SOL    HW127500   2.937   3.111   6.380
 7902SOL    HW227501   2.992   3.264   6.399
 7903SOL     OW27502   2.181   2.672   6.535
 7903SOL    HW127503   2.274   2.708   6.540
 7903SOL    HW227504   2.175   2.587   6.587
 7904SOL     OW27505   3.000   2.242   7.264
 7904SOL    HW127506   2.955   2.305   7.328
 7904SOL    HW227507   3.093   2.273   7.247
 7905SOL     OW27508   3.022   2.069   7.063
 7905SOL    HW127509   3.022   2.133   7.140
 7905SOL    HW227510   3.050   2.117   6.980
 7906SOL     OW27511   1.870   3.188   5.786
 7906SOL    HW127512   1.777   3.209   5.755
 7906SOL    HW227513   1.880   3.089   5.799
 7907SOL     OW27514   1.950   3.663   6.513
 7907SOL    HW127515   1.908   3.577   6.486
 7907SOL    HW227516   2.044   3.666   6.479
 7908SOL     OW27517   2.366   3.430   6.496
 7908SOL    HW127518   2.432   3.504   6.505
 7908SOL    HW227519   2.410   3.351   6.454
 7909SOL     OW27520   2.864   2.658   6.824
 7909SOL    HW127521   2.905   2.626   6.910
 7909SOL    HW227522   2.768   2.631   6.821
 7910SOL     OW27523   2.051   2.382   7.308
 7910SOL    HW127524   2.110   2.342   7.238
 7910SOL    HW227525   1.993   2.453   7.267
 7911SOL     OW27526   3.231   2.812   7.246
 7911SOL    HW127527   3.270   2.901   7.266
 7911SOL    HW227528   3.241   2.792   7.149
 7912SOL     OW27529   2.677   2.434   5.911
 7912SOL    HW127530   2.684   2.345   5.865
 7912SOL    HW227531   2.583   2.468   5.903
 7913SOL     OW27532   3.519   2.466   6.792
 7913SOL    HW127533   3.481   2.397   6.854
 7913SOL    HW227534   3.601   2.430   6.748
 7914SOL     OW27535   2.114   3.426   7.330
 7914SOL    HW127536   2.084   3.483   7.406
 7914SOL    HW227537   2.107   3.329   7.356
 7915SOL     OW27538   2.533   2.326   6.855
 7915SOL    HW127539   2.499   2.237   6.825
 7915SOL    HW227540   2.559   2.380   6.775
 7916SOL     OW27541   2.792   3.540   7.051
 7916SOL    HW127542   2.768   3.522   6.956
 7916SOL    HW227543   2.822   3.634   7.061
 7917SOL     OW27544   2.335   2.362   5.777
 7917SOL    HW127545   2.396   2.442   5.781
 7917SOL    HW227546   2.240   2.393   5.784
 7918SOL     OW27547   2.021   2.999   7.052
 7918SOL    HW127548   2.043   2.938   7.128
 7918SOL    HW227549   2.031   2.950   6.966
 7919SOL     OW27550   3.209   2.921   6.820
 7919SOL    HW127551   3.233   2.858   6.746
 7919SOL    HW227552   3.119   2.961   6.802
 7920SOL     OW27553   3.164   2.717   5.895
 7920SOL    HW127554   3.078   2.686   5.937
 7920SOL    HW227555   3.160   2.703   5.796
 7921SOL     OW27556   3.621   3.609   6.740
 7921SOL    HW127557   3.682   3.639   6.667
 7921SOL    HW227558   3.583   3.520   6.718
 7922SOL     OW27559   3.114   3.593   6.714
 7922SOL    HW127560   3.198   3.598   6.660
 7922SOL    HW227561   3.091   3.497   6.732
 7923SOL     OW27562   1.945   3.120   6.608
 7923SOL    HW127563   1.940   3.119   6.708
 7923SOL    HW227564   1.862   3.079   6.570
 7924SOL     OW27565   2.550   3.524   7.302
 7924SOL    HW127566   2.494   3.605   7.311
 7924SOL    HW227567   2.602   3.528   7.216
 7925SOL     OW27568   3.250   3.435   6.063
 7925SOL    HW127569   3.317   3.447   5.989
 7925SOL    HW227570   3.210   3.524   6.086
 7926SOL     OW27571   1.992   3.656   7.437
 7926SOL    HW127572   1.951   3.582   7.490
 7926SOL    HW227573   2.056   3.707   7.495
 7927SOL     OW27574   3.142   2.789   6.258
 7927SOL    HW127575   3.202   2.708   6.260
 7927SOL    HW227576   3.182   2.858   6.198
 7928SOL     OW27577   2.692   3.135   7.008
 7928SOL    HW127578   2.687   3.168   7.103
 7928SOL    HW227579   2.606   3.154   6.962
 7929SOL     OW27580   2.534   3.478   5.740
 7929SOL    HW127581   2.543   3.488   5.641
 7929SOL    HW227582   2.494   3.389   5.761
 7930SOL     OW27583   3.512   3.582   6.980
 7930SOL    HW127584   3.565   3.592   6.896
 7930SOL    HW227585   3.485   3.672   7.014
 7931SOL     OW27586   3.703   2.037   6.549
 7931SOL    HW127587   3.742   1.952   6.513
 7931SOL    HW227588   3.605   2.039   6.530
 7932SOL     OW27589   3.056   3.474   5.617
 7932SOL    HW127590   3.062   3.381   5.654
 7932SOL    HW227591   2.997   3.474   5.537
 7933SOL     OW27592   2.684   2.864   6.958
 7933SOL    HW127593   2.724   2.863   6.866
 7933SOL    HW227594   2.694   2.956   6.998
 7934SOL     OW27595   2.778   2.772   5.877
 7934SOL    HW127596   2.841   2.810   5.809
 7934SOL    HW227597   2.818   2.689   5.916
 7935SOL     OW27598   3.366   3.469   5.630
 7935SOL    HW127599   3.274   3.506   5.637
 7935SOL    HW227600   3.404   3.489   5.540
 7936SOL     OW27601   2.234   3.150   7.076
 7936SOL    HW127602   2.221   3.243   7.042
 7936SOL    HW227603   2.150   3.098   7.063
 7937SOL     OW27604   3.476   3.154   6.875
 7937SOL    HW127605   3.536   3.157   6.955
 7937SOL    HW227606   3.401   3.218   6.888
 7938SOL     OW27607   2.901   2.960   6.282
 7938SOL    HW127608   2.831   2.913   6.336
 7938SOL    HW227609   2.960   2.892   6.239
 7939SOL     OW27610   2.876   2.098   6.557
 7939SOL    HW127611   2.868   2.062   6.464
 7939SOL    HW227612   2.874   2.022   6.622
 7940SOL     OW27613   2.452   3.349   6.077
 7940SOL    HW127614   2.494   3.291   6.007
 7940SOL    HW227615   2.408   3.428   6.033
 7941SOL     OW27616   3.571   2.247   6.967
 7941SOL    HW127617   3.644   2.316   6.971
 7941SOL    HW227618   3.599   2.172   6.908
 7942SOL     OW27619   2.117   3.210   5.876
 7942SOL    HW127620   2.021   3.211   5.849
 7942SOL    HW227621   2.129   3.263   5.960
 7943SOL     OW27622   1.967   2.875   7.312
 7943SOL    HW127623   1.890   2.842   7.366
 7943SOL    HW227624   2.052   2.845   7.354
 7944SOL     OW27625   2.534   2.065   7.075
 7944SOL    HW127626   2.624   2.049   7.035
 7944SOL    HW227627   2.542   2.070   7.174
 7945SOL     OW27628   1.937   2.207   5.619
 7945SOL    HW127629   1.845   2.179   5.590
 7945SOL    HW227630   1.968   2.284   5.563
 7946SOL     OW27631   3.302   2.718   6.984
 7946SOL    HW127632   3.245   2.770   6.921
 7946SOL    HW227633   3.398   2.730   6.960
 7947SOL     OW27634   1.934   2.028   5.904
 7947SOL    HW127635   1.917   2.111   5.850
 7947SOL    HW227636   2.024   1.991   5.882
 7948SOL     OW27637   3.045   3.197   5.705
 7948SOL    HW127638   2.946   3.186   5.707
 7948SOL    HW227639   3.079   3.212   5.798
 7949SOL     OW27640   2.475   2.704   7.017
 7949SOL    HW127641   2.531   2.785   7.000
 7949SOL    HW227642   2.534   2.624   7.020
 7950SOL     OW27643   3.355   3.629   6.545
 7950SOL    HW127644   3.388   3.693   6.476
 7950SOL    HW227645   3.421   3.623   6.620
 7951SOL     OW27646   2.578   2.427   7.294
 7951SOL    HW127647   2.597   2.492   7.368
 7951SOL    HW227648   2.638   2.347   7.303
 7952SOL     OW27649   3.312   3.082   7.219
 7952SOL    HW127650   3.303   3.072   7.318
 7952SOL    HW227651   3.408   3.075   7.193
 7953SOL     OW27652   2.252   3.603   7.146
 7953SOL    HW127653   2.161   3.644   7.144
 7953SOL    HW227654   2.245   3.509   7.178
 7954SOL     OW27655   3.536   2.745   6.840
 7954SOL    HW127656   3.509   2.656   6.803
 7954SOL    HW227657   3.537   2.813   6.767
 7955SOL     OW27658   2.456   2.607   6.238
 7955SOL    HW127659   2.506   2.692   6.219
 7955SOL    HW227660   2.368   2.609   6.190
 7956SOL     OW27661   3.639   2.204   7.228
 7956SOL    HW127662   3.622   2.235   7.134
 7956SOL    HW227663   3.555   2.167   7.266
 7957SOL     OW27664   3.592   2.796   7.103
 7957SOL    HW127665   3.630   2.887   7.118
 7957SOL    HW227666   3.584   2.779   7.004
 7958SOL     OW27667   2.721   3.236   5.602
 7958SOL    HW127668   2.675   3.251   5.690
 7958SOL    HW227669   2.765   3.321   5.572
 7959SOL     OW27670   2.523   3.652   6.539
 7959SOL    HW127671   2.477   3.740   6.526
 7959SOL    HW227672   2.622   3.664   6.532
 7960SOL     OW27673   2.721   2.818   6.447
 7960SOL    HW127674   2.775   2.749   6.495
 7960SOL    HW227675   2.689   2.887   6.513
 7961SOL     OW27676   2.945   2.846   5.673
 7961SOL    HW127677   2.922   2.899   5.591
 7961SOL    HW227678   3.026   2.790   5.654
 7962SOL     OW27679   3.723   3.431   6.437
 7962SOL    HW127680   3.652   3.419   6.367
 7962SOL    HW227681   3.724   3.352   6.497
 7963SOL     OW27682   2.083   3.176   7.430
 7963SOL    HW127683   2.018   3.103   7.409
 7963SOL    HW227684   2.087   3.190   7.528
 7964SOL     OW27685   1.941   3.102   6.239
 7964SOL    HW127686   1.940   3.055   6.327
 7964SOL    HW227687   2.023   3.074   6.188
 7965SOL     OW27688   2.534   3.253   7.210
 7965SOL    HW127689   2.456   3.203   7.248
 7965SOL    HW227690   2.531   3.348   7.241
 7966SOL     OW27691   3.686   2.054   6.813
 7966SOL    HW127692   3.682   1.964   6.857
 7966SOL    HW227693   3.689   2.043   6.714
 7967SOL     OW27694   2.290   2.286   6.106
 7967SOL    HW127695   2.320   2.214   6.044
 7967SOL    HW227696   2.251   2.246   6.189
 7968SOL     OW27697   3.567   3.349   6.690
 7968SOL    HW127698   3.474   3.324   6.663
 7968SOL    HW227699   3.593   3.299   6.772
 7969SOL     OW27700   2.179   2.409   6.866
 7969SOL    HW127701   2.217   2.350   6.938
 7969SOL    HW227702   2.219   2.383   6.778
 7970SOL     OW27703   2.674   3.448   6.273
 7970SOL    HW127704   2.706   3.458   6.179
 7970SOL    HW227705   2.595   3.386   6.275
 7971SOL     OW27706   2.863   1.896   6.740
 7971SOL    HW127707   2.800   1.824   6.709
 7971SOL    HW227708   2.956   1.860   6.740
 7972SOL     OW27709   2.632   3.192   5.887
 7972SOL    HW127710   2.586   3.105   5.904
 7972SOL    HW227711   2.723   3.189   5.928
 7973SOL     OW27712   2.480   3.429   6.870
 7973SOL    HW127713   2.475   3.511   6.927
 7973SOL    HW227714   2.569   3.426   6.825
 7974SOL     OW27715   3.214   1.914   5.754
 7974SOL    HW127716   3.249   1.873   5.670
 7974SOL    HW227717   3.124   1.876   5.774
 7975SOL     OW27718   3.162   2.315   6.277
 7975SOL    HW127719   3.103   2.395   6.281
 7975SOL    HW227720   3.177   2.280   6.370
 7976SOL     OW27721   3.455   2.083   6.468
 7976SOL    HW127722   3.371   2.082   6.522
 7976SOL    HW227723   3.457   2.166   6.412
 7977SOL     OW27724   1.901   2.939   5.886
 7977SOL    HW127725   2.000   2.928   5.877
 7977SOL    HW227726   1.861   2.853   5.918
 7978SOL     OW27727   2.737   3.508   5.923
 7978SOL    HW127728   2.660   3.473   5.869
 7978SOL    HW227729   2.705   3.579   5.985
 7979SOL     OW27730   2.092   2.490   7.561
 7979SOL    HW127731   1.999   2.488   7.598
 7979SOL    HW227732   2.093   2.451   7.469
 7980SOL     OW27733   2.087   2.137   8.444
 7980SOL    HW127734   2.122   2.120   8.536
 7980SOL    HW227735   1.999   2.092   8.432
 7981SOL     OW27736   1.881   2.230   8.095
 7981SOL    HW127737   1.799   2.273   8.134
 7981SOL    HW227738   1.853   2.157   8.032
 7982SOL     OW27739   2.431   3.137   8.613
 7982SOL    HW127740   2.338   3.130   8.576
 7982SOL    HW227741   2.442   3.226   8.657
 7983SOL     OW27742   3.417   3.373   8.151
 7983SOL    HW127743   3.360   3.357   8.232
 7983SOL    HW227744   3.358   3.383   8.071
 7984SOL     OW27745   2.997   2.565   8.165
 7984SOL    HW127746   3.054   2.643   8.140
 7984SOL    HW227747   2.937   2.591   8.241
 7985SOL     OW27748   3.617   2.469   7.679
 7985SOL    HW127749   3.605   2.456   7.580
 7985SOL    HW227750   3.587   2.388   7.728
 7986SOL     OW27751   2.630   3.006   8.471
 7986SOL    HW127752   2.552   3.023   8.531
 7986SOL    HW227753   2.664   3.093   8.435
 7987SOL     OW27754   2.712   2.660   9.271
 7987SOL    HW127755   2.708   2.736   9.336
 7987SOL    HW227756   2.734   2.696   9.180
 7988SOL     OW27757   2.547   2.874   8.113
 7988SOL    HW127758   2.616   2.858   8.183
 7988SOL    HW227759   2.474   2.931   8.151
 7989SOL     OW27760   2.548   3.023   9.251
 7989SOL    HW127761   2.608   3.102   9.265
 7989SOL    HW227762   2.462   3.054   9.210
 7990SOL     OW27763   2.197   3.297   8.509
 7990SOL    HW127764   2.119   3.266   8.456
 7990SOL    HW227765   2.255   3.355   8.452
 7991SOL     OW27766   3.322   3.367   8.787
 7991SOL    HW127767   3.346   3.461   8.813
 7991SOL    HW227768   3.306   3.313   8.869
 7992SOL     OW27769   3.465   2.309   8.185
 7992SOL    HW127770   3.391   2.355   8.135
 7992SOL    HW227771   3.516   2.377   8.238
 7993SOL     OW27772   2.093   3.575   7.931
 7993SOL    HW127773   2.127   3.652   7.985
 7993SOL    HW227774   2.137   3.575   7.841
 7994SOL     OW27775   2.989   3.203   9.138
 7994SOL    HW127776   3.036   3.203   9.226
 7994SOL    HW227777   2.941   3.116   9.127
 7995SOL     OW27778   2.092   3.296   7.986
 7995SOL    HW127779   2.066   3.392   7.986
 7995SOL    HW227780   2.021   3.242   8.031
 7996SOL     OW27781   2.102   2.953   8.334
 7996SOL    HW127782   2.116   2.869   8.386
 7996SOL    HW227783   2.047   3.017   8.389
 7997SOL     OW27784   2.482   3.648   8.887
 7997SOL    HW127785   2.390   3.631   8.922
 7997SOL    HW227786   2.510   3.740   8.913
 7998SOL     OW27787   2.468   2.826   7.571
 7998SOL    HW127788   2.475   2.910   7.517
 7998SOL    HW227789   2.514   2.839   7.659
 7999SOL     OW27790   3.456   1.976   8.928
 7999SOL    HW127791   3.438   2.043   8.856
 7999SOL    HW227792   3.453   2.022   9.017
 8000SOL     OW27793   1.984   2.505   8.011
 8000SOL    HW127794   1.939   2.417   8.028
 8000SOL    HW227795   1.983   2.559   8.095
 8001SOL     OW27796   3.704   3.629   7.807
 8001SOL    HW127797   3.758   3.600   7.887
 8001SOL    HW227798   3.734   3.719   7.778
 8002SOL     OW27799   1.889   3.458   7.565
 8002SOL    HW127800   1.870   3.362   7.586
 8002SOL    HW227801   1.856   3.516   7.640
 8003SOL     OW27802   3.551   2.784   8.060
 8003SOL    HW127803   3.646   2.755   8.068
 8003SOL    HW227804   3.543   2.849   7.985
 8004SOL     OW27805   3.503   2.970   7.880
 8004SOL    HW127806   3.589   2.972   7.828
 8004SOL    HW227807   3.517   3.017   7.968
 8005SOL     OW27808   2.475   3.227   8.174
 8005SOL    HW127809   2.426   3.140   8.183
 8005SOL    HW227810   2.452   3.270   8.087
 8006SOL     OW27811   3.155   3.090   8.871
 8006SOL    HW127812   3.192   3.017   8.813
 8006SOL    HW227813   3.207   3.095   8.956
 8007SOL     OW27814   2.671   1.866   7.950
 8007SOL    HW127815   2.711   1.957   7.941
 8007SOL    HW227816   2.571   1.874   7.956
 8008SOL     OW27817   2.059   2.838   8.712
 8008SOL    HW127818   2.148   2.793   8.698
 8008SOL    HW227819   1.986   2.773   8.693
 8009SOL     OW27820   3.387   2.861   7.638
 8009SOL    HW127821   3.324   2.785   7.651
 8009SOL    HW227822   3.435   2.879   7.724
 8010SOL     OW27823   3.049   3.654   9.064
 8010SOL    HW127824   3.073   3.714   8.988
 8010SOL    HW227825   3.056   3.559   9.034
 8011SOL     OW27826   2.179   2.113   9.249
 8011SOL    HW127827   2.250   2.184   9.255
 8011SOL    HW227828   2.091   2.152   9.277
 8012SOL     OW27829   3.328   3.279   8.401
 8012SOL    HW127830   3.269   3.285   8.481
 8012SOL    HW227831   3.313   3.191   8.355
 8013SOL     OW27832   3.529   3.576   8.020
 8013SOL    HW127833   3.488   3.553   7.932
 8013SOL    HW227834   3.511   3.502   8.085
 8014SOL     OW27835   2.460   2.591   7.718
 8014SOL    HW127836   2.484   2.660   7.650
 8014SOL    HW227837   2.382   2.624   7.772
 8015SOL     OW27838   3.143   2.207   8.392
 8015SOL    HW127839   3.057   2.157   8.379
 8015SOL    HW227840   3.205   2.153   8.448
 8016SOL     OW27841   3.438   3.524   7.755
 8016SOL    HW127842   3.527   3.570   7.758
 8016SOL    HW227843   3.417   3.500   7.660
 8017SOL     OW27844   2.669   2.467   8.913
 8017SOL    HW127845   2.622   2.464   9.002
 8017SOL    HW227846   2.618   2.412   8.847
 8018SOL     OW27847   3.256   2.331   9.122
 8018SOL    HW127848   3.236   2.374   9.210
 8018SOL    HW227849   3.334   2.269   9.131
 8019SOL     OW27850   2.835   2.752   9.020
 8019SOL    HW127851   2.881   2.668   8.991
 8019SOL    HW227852   2.779   2.786   8.945
 8020SOL     OW27853   2.853   2.272   8.690
 8020SOL    HW127854   2.776   2.306   8.744
 8020SOL    HW227855   2.819   2.221   8.611
 8021SOL     OW27856   2.903   2.563   7.877
 8021SOL    HW127857   2.929   2.559   7.973
 8021SOL    HW227858   2.818   2.512   7.863
 8022SOL     OW27859   1.938   2.673   8.237
 8022SOL    HW127860   2.037   2.661   8.246
 8022SOL    HW227861   1.914   2.768   8.258
 8023SOL     OW27862   1.992   3.683   9.019
 8023SOL    HW127863   1.982   3.668   9.118
 8023SOL    HW227864   1.906   3.719   8.983
 8024SOL     OW27865   2.727   2.210   7.643
 8024SOL    HW127866   2.786   2.273   7.594
 8024SOL    HW227867   2.746   2.116   7.614
 8025SOL     OW27868   3.581   2.447   9.279
 8025SOL    HW127869   3.555   2.536   9.243
 8025SOL    HW227870   3.579   2.379   9.206
 8026SOL     OW27871   3.224   3.006   7.993
 8026SOL    HW127872   3.307   2.977   7.945
 8026SOL    HW227873   3.175   3.073   7.937
 8027SOL     OW27874   2.412   2.058   8.333
 8027SOL    HW127875   2.407   2.053   8.433
 8027SOL    HW227876   2.414   2.154   8.304
 8028SOL     OW27877   2.870   3.318   7.925
 8028SOL    HW127878   2.824   3.390   7.873
 8028SOL    HW227879   2.866   3.338   8.023
 8029SOL     OW27880   2.213   3.663   8.301
 8029SOL    HW127881   2.263   3.577   8.307
 8029SOL    HW227882   2.278   3.740   8.298
 8030SOL     OW27883   3.657   2.928   8.321
 8030SOL    HW127884   3.595   2.913   8.245
 8030SOL    HW227885   3.605   2.939   8.406
 8031SOL     OW27886   3.089   3.412   8.954
 8031SOL    HW127887   3.095   3.335   9.018
 8031SOL    HW227888   3.037   3.386   8.874
 8032SOL     OW27889   2.183   2.805   7.690
 8032SOL    HW127890   2.265   2.844   7.648
 8032SOL    HW227891   2.156   2.723   7.641
 8033SOL     OW27892   3.320   2.597   8.176
 8033SOL    HW127893   3.315   2.532   8.251
 8033SOL    HW227894   3.400   2.656   8.189
 8034SOL     OW27895   2.323   3.128   9.175
 8034SOL    HW127896   2.273   3.129   9.089
 8034SOL    HW227897   2.260   3.110   9.251
 8035SOL     OW27898   2.973   3.638   7.685
 8035SOL    HW127899   2.913   3.576   7.735
 8035SOL    HW227900   3.004   3.594   7.600
 8036SOL     OW27901   3.494   3.239   7.529
 8036SOL    HW127902   3.462   3.333   7.519
 8036SOL    HW227903   3.418   3.176   7.517
 8037SOL     OW27904   2.326   3.605   7.771
 8037SOL    HW127905   2.359   3.644   7.857
 8037SOL    HW227906   2.402   3.598   7.706
 8038SOL     OW27907   3.262   1.969   7.874
 8038SOL    HW127908   3.238   1.932   7.784
 8038SOL    HW227909   3.361   1.985   7.878
 8039SOL     OW27910   2.111   3.647   8.689
 8039SOL    HW127911   2.168   3.582   8.739
 8039SOL    HW227912   2.095   3.614   8.596
 8040SOL     OW27913   2.802   3.560   8.352
 8040SOL    HW127914   2.882   3.503   8.373
 8040SOL    HW227915   2.753   3.520   8.275
 8041SOL     OW27916   2.244   2.562   7.928
 8041SOL    HW127917   2.289   2.472   7.925
 8041SOL    HW227918   2.150   2.551   7.961
 8042SOL     OW27919   3.409   2.084   9.177
 8042SOL    HW127920   3.404   2.121   9.269
 8042SOL    HW227921   3.337   2.015   9.165
 8043SOL     OW27922   2.476   1.984   7.565
 8043SOL    HW127923   2.574   1.962   7.572
 8043SOL    HW227924   2.445   1.967   7.472
 8044SOL     OW27925   2.643   2.126   9.197
 8044SOL    HW127926   2.710   2.065   9.240
 8044SOL    HW227927   2.570   2.145   9.262
 8045SOL     OW27928   2.750   3.376   8.643
 8045SOL    HW127929   2.727   3.351   8.549
 8045SOL    HW227930   2.811   3.307   8.682
 8046SOL     OW27931   3.213   2.452   8.881
 8046SOL    HW127932   3.241   2.409   8.966
 8046SOL    HW227933   3.238   2.548   8.882
 8047SOL     OW27934   2.665   3.264   8.372
 8047SOL    HW127935   2.755   3.278   8.330
 8047SOL    HW227936   2.594   3.266   8.301
 8048SOL     OW27937   2.784   2.365   8.347
 8048SOL    HW127938   2.759   2.356   8.251
 8048SOL    HW227939   2.832   2.283   8.378
 8049SOL     OW27940   2.401   1.926   7.960
 8049SOL    HW127941   2.320   1.927   8.018
 8049SOL    HW227942   2.404   2.009   7.905
 8050SOL     OW27943   3.296   3.050   7.489
 8050SOL    HW127944   3.328   2.974   7.546
 8050SOL    HW227945   3.204   3.077   7.519
 8051SOL     OW27946   2.159   1.897   7.619
 8051SOL    HW127947   2.208   1.981   7.598
 8051SOL    HW227948   2.221   1.832   7.664
 8052SOL     OW27949   2.797   2.098   7.928
 8052SOL    HW127950   2.749   2.139   7.850
 8052SOL    HW227951   2.896   2.096   7.909
 8053SOL     OW27952   2.938   2.545   8.912
 8053SOL    HW127953   2.858   2.484   8.915
 8053SOL    HW227954   3.019   2.492   8.888
 8054SOL     OW27955   3.089   3.432   8.241
 8054SOL    HW127956   3.110   3.506   8.176
 8054SOL    HW227957   3.157   3.432   8.314
 8055SOL     OW27958   2.321   3.014   8.189
 8055SOL    HW127959   2.250   2.987   8.254
 8055SOL    HW227960   2.295   2.986   8.096
 8056SOL     OW27961   3.133   3.659   8.039
 8056SOL    HW127962   3.177   3.723   7.975
 8056SOL    HW227963   3.083   3.711   8.109
 8057SOL     OW27964   2.894   2.411   7.464
 8057SOL    HW127965   2.853   2.493   7.425
 8057SOL    HW227966   2.958   2.437   7.537
 8058SOL     OW27967   1.940   2.418   8.834
 8058SOL    HW127968   2.032   2.417   8.793
 8058SOL    HW227969   1.934   2.492   8.901
 8059SOL     OW27970   2.728   2.316   8.090
 8059SOL    HW127971   2.696   2.388   8.028
 8059SOL    HW227972   2.752   2.235   8.037
 8060SOL     OW27973   3.291   3.035   8.315
 8060SOL    HW127974   3.236   2.951   8.308
 8060SOL    HW227975   3.317   3.064   8.223
 8061SOL     OW27976   3.328   2.452   8.440
 8061SOL    HW127977   3.298   2.357   8.447
 8061SOL    HW227978   3.401   2.468   8.506
 8062SOL     OW27979   3.719   2.695   7.825
 8062SOL    HW127980   3.761   2.631   7.889
 8062SOL    HW227981   3.681   2.644   7.747
 8063SOL     OW27982   2.350   3.247   7.622
 8063SOL    HW127983   2.263   3.232   7.669
 8063SOL    HW227984   2.333   3.273   7.527
 8064SOL     OW27985   3.526   3.142   8.105
 8064SOL    HW127986   3.625   3.150   8.119
 8064SOL    HW227987   3.481   3.226   8.136
 8065SOL     OW27988   3.252   2.437   7.526
 8065SOL    HW127989   3.198   2.416   7.607
 8065SOL    HW227990   3.343   2.396   7.535
 8066SOL     OW27991   2.389   2.118   7.776
 8066SOL    HW127992   2.416   2.059   7.701
 8066SOL    HW227993   2.389   2.213   7.745
 8067SOL     OW27994   3.616   3.085   9.036
 8067SOL    HW127995   3.707   3.046   9.023
 8067SOL    HW227996   3.624   3.181   9.060
 8068SOL     OW27997   2.926   3.209   8.788
 8068SOL    HW127998   2.846   3.186   8.843
 8068SOL    HW227999   3.009   3.183   8.837
 8069SOL     OW28000   3.454   3.491   9.073
 8069SOL    HW128001   3.481   3.525   8.983
 8069SOL    HW228002   3.533   3.453   9.119
 8070SOL     OW28003   2.973   3.057   8.548
 8070SOL    HW128004   2.933   3.101   8.629
 8070SOL    HW228005   2.932   3.094   8.465
 8071SOL     OW28006   3.500   2.961   8.527
 8071SOL    HW128007   3.505   3.042   8.586
 8071SOL    HW228008   3.414   2.963   8.476
 8072SOL     OW28009   2.777   1.951   8.850
 8072SOL    HW128010   2.802   1.931   8.755
 8072SOL    HW228011   2.849   2.007   8.892
 8073SOL     OW28012   2.842   2.978   9.167
 8073SOL    HW128013   2.743   2.984   9.177
 8073SOL    HW228014   2.865   2.898   9.111
 8074SOL     OW28015   2.567   2.912   7.816
 8074SOL    HW128016   2.553   2.919   7.915
 8074SOL    HW228017   2.651   2.861   7.798
 8075SOL     OW28018   2.272   2.675   8.699
 8075SOL    HW128019   2.358   2.687   8.749
 8075SOL    HW228020   2.230   2.588   8.726
 8076SOL     OW28021   3.136   2.248   8.710
 8076SOL    HW128022   3.157   2.322   8.774
 8076SOL    HW228023   3.047   2.265   8.667
 8077SOL     OW28024   1.926   3.426   8.779
 8077SOL    HW128025   1.880   3.508   8.745
 8077SOL    HW228026   2.024   3.445   8.788
 8078SOL     OW28027   2.229   2.962   7.949
 8078SOL    HW128028   2.222   3.045   7.893
 8078SOL    HW228029   2.233   2.882   7.889
 8079SOL     OW28030   2.428   2.399   8.313
 8079SOL    HW128031   2.440   2.465   8.239
 8079SOL    HW228032   2.474   2.433   8.396
 8080SOL     OW28033   3.114   3.210   7.836
 8080SOL    HW128034   3.164   3.287   7.876
 8080SOL    HW228035   3.019   3.212   7.868
 8081SOL     OW28036   3.134   3.307   8.590
 8081SOL    HW128037   3.181   3.320   8.677
 8081SOL    HW228038   3.068   3.233   8.599
 8082SOL     OW28039   3.444   2.501   7.920
 8082SOL    HW128040   3.413   2.562   7.993
 8082SOL    HW228041   3.494   2.553   7.851
 8083SOL     OW28042   2.216   3.372   8.777
 8083SOL    HW128043   2.195   3.328   8.690
 8083SOL    HW228044   2.313   3.398   8.780
 8084SOL     OW28045   3.449   2.641   9.118
 8084SOL    HW128046   3.357   2.679   9.113
 8084SOL    HW228047   3.509   2.688   9.053
 8085SOL     OW28048   2.875   1.967   9.218
 8085SOL    HW128049   2.881   2.052   9.166
 8085SOL    HW228050   2.907   1.891   9.161
 8086SOL     OW28051   2.366   1.912   9.188
 8086SOL    HW128052   2.324   1.855   9.118
 8086SOL    HW228053   2.300   1.981   9.220
 8087SOL     OW28054   2.435   2.732   8.477
 8087SOL    HW128055   2.479   2.821   8.468
 8087SOL    HW228056   2.372   2.732   8.554
 8088SOL     OW28057   3.222   2.724   8.493
 8088SOL    HW128058   3.147   2.724   8.427
 8088SOL    HW228059   3.259   2.632   8.502
 8089SOL     OW28060   3.071   2.387   7.723
 8089SOL    HW128061   3.084   2.303   7.777
 8089SOL    HW228062   3.042   2.461   7.783
 8090SOL     OW28063   1.899   3.172   8.730
 8090SOL    HW128064   1.952   3.123   8.798
 8090SOL    HW228065   1.921   3.270   8.735
 8091SOL     OW28066   2.594   2.496   8.512
 8091SOL    HW128067   2.653   2.470   8.436
 8091SOL    HW228068   2.566   2.592   8.501
 8092SOL     OW28069   3.590   2.797   9.302
 8092SOL    HW128070   3.544   2.790   9.213
 8092SOL    HW228071   3.528   2.841   9.368
 8093SOL     OW28072   2.169   1.925   8.066
 8093SOL    HW128073   2.158   2.019   8.099
 8093SOL    HW228074   2.164   1.862   8.143
 8094SOL     OW28075   3.484   2.229   7.822
 8094SOL    HW128076   3.486   2.153   7.886
 8094SOL    HW228077   3.436   2.306   7.862
 8095SOL     OW28078   2.885   2.628   8.414
 8095SOL    HW128079   2.900   2.649   8.510
 8095SOL    HW228080   2.855   2.533   8.405
 8096SOL     OW28081   2.842   3.435   9.148
 8096SOL    HW128082   2.822   3.479   9.060
 8096SOL    HW228083   2.881   3.344   9.132
 8097SOL     OW28084   3.721   3.380   9.053
 8097SOL    HW128085   3.735   3.407   8.958
 8097SOL    HW228086   3.804   3.402   9.106
 8098SOL     OW28087   3.402   2.136   7.573
 8098SOL    HW128088   3.341   2.061   7.596
 8098SOL    HW228089   3.424   2.188   7.656
 8099SOL     OW28090   3.165   2.700   7.490
 8099SOL    HW128091   3.199   2.607   7.505
 8099SOL    HW228092   3.183   2.727   7.395
 8100SOL     OW28093   2.930   3.195   8.297
 8100SOL    HW128094   2.937   3.111   8.242
 8100SOL    HW228095   2.992   3.264   8.261
 8101SOL     OW28096   2.181   2.672   8.397
 8101SOL    HW128097   2.274   2.708   8.402
 8101SOL    HW228098   2.175   2.587   8.449
 8102SOL     OW28099   2.201   2.371   8.454
 8102SOL    HW128100   2.149   2.288   8.437
 8102SOL    HW228101   2.278   2.376   8.390
 8103SOL     OW28102   3.000   2.242   9.126
 8103SOL    HW128103   2.955   2.305   9.190
 8103SOL    HW228104   3.093   2.273   9.109
 8104SOL     OW28105   3.022   2.069   8.925
 8104SOL    HW128106   3.022   2.133   9.002
 8104SOL    HW228107   3.050   2.117   8.842
 8105SOL     OW28108   1.870   3.188   7.648
 8105SOL    HW128109   1.777   3.209   7.617
 8105SOL    HW228110   1.880   3.089   7.661
 8106SOL     OW28111   1.950   3.663   8.375
 8106SOL    HW128112   1.908   3.577   8.348
 8106SOL    HW228113   2.044   3.666   8.341
 8107SOL     OW28114   2.366   3.430   8.358
 8107SOL    HW128115   2.432   3.504   8.367
 8107SOL    HW228116   2.410   3.351   8.316
 8108SOL     OW28117   2.864   2.658   8.686
 8108SOL    HW128118   2.905   2.626   8.772
 8108SOL    HW228119   2.768   2.631   8.683
 8109SOL     OW28120   1.902   2.406   8.562
 8109SOL    HW128121   1.987   2.373   8.521
 8109SOL    HW228122   1.915   2.421   8.660
 8110SOL     OW28123   3.231   2.812   9.108
 8110SOL    HW128124   3.270   2.901   9.128
 8110SOL    HW228125   3.241   2.792   9.011
 8111SOL     OW28126   2.677   2.434   7.773
 8111SOL    HW128127   2.684   2.345   7.727
 8111SOL    HW228128   2.583   2.468   7.765
 8112SOL     OW28129   3.519   2.466   8.654
 8112SOL    HW128130   3.481   2.397   8.716
 8112SOL    HW228131   3.601   2.430   8.610
 8113SOL     OW28132   2.114   3.426   9.192
 8113SOL    HW128133   2.084   3.483   9.268
 8113SOL    HW228134   2.107   3.329   9.218
 8114SOL     OW28135   2.533   2.326   8.717
 8114SOL    HW128136   2.499   2.237   8.687
 8114SOL    HW228137   2.559   2.380   8.637
 8115SOL     OW28138   2.792   3.540   8.913
 8115SOL    HW128139   2.768   3.522   8.818
 8115SOL    HW228140   2.822   3.634   8.923
 8116SOL     OW28141   2.335   2.362   7.639
 8116SOL    HW128142   2.396   2.442   7.643
 8116SOL    HW228143   2.240   2.393   7.646
 8117SOL     OW28144   2.021   2.999   8.914
 8117SOL    HW128145   2.043   2.938   8.990
 8117SOL    HW228146   2.031   2.950   8.828
 8118SOL     OW28147   3.209   2.921   8.682
 8118SOL    HW128148   3.233   2.858   8.608
 8118SOL    HW228149   3.119   2.961   8.664
 8119SOL     OW28150   3.164   2.717   7.757
 8119SOL    HW128151   3.078   2.686   7.799
 8119SOL    HW228152   3.160   2.703   7.658
 8120SOL     OW28153   3.621   3.609   8.602
 8120SOL    HW128154   3.682   3.639   8.529
 8120SOL    HW228155   3.583   3.520   8.580
 8121SOL     OW28156   3.114   3.593   8.576
 8121SOL    HW128157   3.198   3.598   8.522
 8121SOL    HW228158   3.091   3.497   8.594
 8122SOL     OW28159   1.945   3.120   8.470
 8122SOL    HW128160   1.940   3.119   8.570
 8122SOL    HW228161   1.862   3.079   8.432
 8123SOL     OW28162   2.550   3.524   9.164
 8123SOL    HW128163   2.494   3.605   9.173
 8123SOL    HW228164   2.602   3.528   9.078
 8124SOL     OW28165   3.588   1.997   7.971
 8124SOL    HW128166   3.661   1.980   7.904
 8124SOL    HW228167   3.557   1.910   8.009
 8125SOL     OW28168   3.250   3.435   7.925
 8125SOL    HW128169   3.317   3.447   7.851
 8125SOL    HW228170   3.210   3.524   7.948
 8126SOL     OW28171   1.992   3.656   9.299
 8126SOL    HW128172   1.951   3.582   9.352
 8126SOL    HW228173   2.056   3.707   9.357
 8127SOL     OW28174   3.142   2.789   8.120
 8127SOL    HW128175   3.202   2.708   8.122
 8127SOL    HW228176   3.182   2.858   8.060
 8128SOL     OW28177   2.692   3.135   8.870
 8128SOL    HW128178   2.687   3.168   8.965
 8128SOL    HW228179   2.606   3.154   8.824
 8129SOL     OW28180   2.534   3.478   7.602
 8129SOL    HW128181   2.543   3.488   7.503
 8129SOL    HW228182   2.494   3.389   7.623
 8130SOL     OW28183   3.512   3.582   8.842
 8130SOL    HW128184   3.565   3.592   8.758
 8130SOL    HW228185   3.485   3.672   8.876
 8131SOL     OW28186   3.703   2.037   8.411
 8131SOL    HW128187   3.742   1.952   8.375
 8131SOL    HW228188   3.605   2.039   8.392
 8132SOL     OW28189   2.125   2.188   8.168
 8132SOL    HW128190   2.046   2.239   8.134
 8132SOL    HW228191   2.116   2.173   8.266
 8133SOL     OW28192   3.056   3.474   7.479
 8133SOL    HW128193   3.062   3.381   7.516
 8133SOL    HW228194   2.997   3.474   7.399
 8134SOL     OW28195   2.684   2.864   8.820
 8134SOL    HW128196   2.724   2.863   8.728
 8134SOL    HW228197   2.694   2.956   8.860
 8135SOL     OW28198   2.778   2.772   7.739
 8135SOL    HW128199   2.841   2.810   7.671
 8135SOL    HW228200   2.818   2.689   7.778
 8136SOL     OW28201   3.366   3.469   7.492
 8136SOL    HW128202   3.274   3.506   7.499
 8136SOL    HW228203   3.404   3.489   7.402
 8137SOL     OW28204   2.234   3.150   8.938
 8137SOL    HW128205   2.221   3.243   8.904
 8137SOL    HW228206   2.150   3.098   8.925
 8138SOL     OW28207   3.476   3.154   8.737
 8138SOL    HW128208   3.536   3.157   8.817
 8138SOL    HW228209   3.401   3.218   8.750
 8139SOL     OW28210   2.901   2.960   8.144
 8139SOL    HW128211   2.831   2.913   8.198
 8139SOL    HW228212   2.960   2.892   8.101
 8140SOL     OW28213   2.452   3.349   7.939
 8140SOL    HW128214   2.494   3.291   7.869
 8140SOL    HW228215   2.408   3.428   7.895
 8141SOL     OW28216   3.571   2.247   8.829
 8141SOL    HW128217   3.644   2.316   8.833
 8141SOL    HW228218   3.599   2.172   8.770
 8142SOL     OW28219   2.117   3.210   7.738
 8142SOL    HW128220   2.021   3.211   7.711
 8142SOL    HW228221   2.129   3.263   7.822
 8143SOL     OW28222   1.967   2.875   9.174
 8143SOL    HW128223   1.890   2.842   9.228
 8143SOL    HW228224   2.052   2.845   9.216
 8144SOL     OW28225   2.534   2.065   8.937
 8144SOL    HW128226   2.624   2.049   8.897
 8144SOL    HW228227   2.542   2.070   9.036
 8145SOL     OW28228   1.937   2.207   7.481
 8145SOL    HW128229   1.845   2.179   7.452
 8145SOL    HW228230   1.968   2.284   7.425
 8146SOL     OW28231   3.302   2.718   8.846
 8146SOL    HW128232   3.245   2.770   8.783
 8146SOL    HW228233   3.398   2.730   8.822
 8147SOL     OW28234   1.934   2.028   7.766
 8147SOL    HW128235   1.917   2.111   7.712
 8147SOL    HW228236   2.024   1.991   7.744
 8148SOL     OW28237   3.045   3.197   7.567
 8148SOL    HW128238   2.946   3.186   7.569
 8148SOL    HW228239   3.079   3.212   7.660
 8149SOL     OW28240   2.475   2.704   8.879
 8149SOL    HW128241   2.531   2.785   8.862
 8149SOL    HW228242   2.534   2.624   8.882
 8150SOL     OW28243   3.355   3.629   8.407
 8150SOL    HW128244   3.388   3.693   8.338
 8150SOL    HW228245   3.421   3.623   8.482
 8151SOL     OW28246   2.578   2.427   9.156
 8151SOL    HW128247   2.597   2.492   9.230
 8151SOL    HW228248   2.638   2.347   9.165
 8152SOL     OW28249   3.312   3.082   9.081
 8152SOL    HW128250   3.303   3.072   9.180
 8152SOL    HW228251   3.408   3.075   9.055
 8153SOL     OW28252   2.252   3.603   9.008
 8153SOL    HW128253   2.161   3.644   9.006
 8153SOL    HW228254   2.245   3.509   9.040
 8154SOL     OW28255   3.536   2.745   8.702
 8154SOL    HW128256   3.509   2.656   8.665
 8154SOL    HW228257   3.537   2.813   8.629
 8155SOL     OW28258   3.087   2.187   7.897
 8155SOL    HW128259   3.152   2.113   7.886
 8155SOL    HW228260   3.107   2.237   7.981
 8156SOL     OW28261   2.456   2.607   8.100
 8156SOL    HW128262   2.506   2.692   8.081
 8156SOL    HW228263   2.368   2.609   8.052
 8157SOL     OW28264   3.639   2.204   9.090
 8157SOL    HW128265   3.622   2.235   8.996
 8157SOL    HW228266   3.555   2.167   9.128
 8158SOL     OW28267   3.592   2.796   8.965
 8158SOL    HW128268   3.630   2.887   8.980
 8158SOL    HW228269   3.584   2.779   8.866
 8159SOL     OW28270   2.721   3.236   7.464
 8159SOL    HW128271   2.675   3.251   7.552
 8159SOL    HW228272   2.765   3.321   7.434
 8160SOL     OW28273   2.523   3.652   8.401
 8160SOL    HW128274   2.477   3.740   8.388
 8160SOL    HW228275   2.622   3.664   8.394
 8161SOL     OW28276   2.721   2.818   8.309
 8161SOL    HW128277   2.775   2.749   8.357
 8161SOL    HW228278   2.689   2.887   8.375
 8162SOL     OW28279   2.945   2.846   7.535
 8162SOL    HW128280   2.922   2.899   7.453
 8162SOL    HW228281   3.026   2.790   7.516
 8163SOL     OW28282   3.723   3.431   8.299
 8163SOL    HW128283   3.652   3.419   8.229
 8163SOL    HW228284   3.724   3.352   8.359
 8164SOL     OW28285   2.083   3.176   9.292
 8164SOL    HW128286   2.018   3.103   9.271
 8164SOL    HW228287   2.087   3.190   9.390
 8165SOL     OW28288   1.941   3.102   8.101
 8165SOL    HW128289   1.940   3.055   8.189
 8165SOL    HW228290   2.023   3.074   8.050
 8166SOL     OW28291   2.534   3.253   9.072
 8166SOL    HW128292   2.456   3.203   9.110
 8166SOL    HW228293   2.531   3.348   9.103
 8167SOL     OW28294   3.686   2.054   8.675
 8167SOL    HW128295   3.682   1.964   8.719
 8167SOL    HW228296   3.689   2.043   8.576
 8168SOL     OW28297   2.290   2.286   7.968
 8168SOL    HW128298   2.320   2.214   7.906
 8168SOL    HW228299   2.251   2.246   8.051
 8169SOL     OW28300   3.567   3.349   8.552
 8169SOL    HW128301   3.474   3.324   8.525
 8169SOL    HW228302   3.593   3.299   8.634
 8170SOL     OW28303   2.674   3.448   8.135
 8170SOL    HW128304   2.706   3.458   8.041
 8170SOL    HW228305   2.595   3.386   8.137
 8171SOL     OW28306   3.286   2.076   8.560
 8171SOL    HW128307   3.338   2.011   8.615
 8171SOL    HW228308   3.237   2.139   8.621
 8172SOL     OW28309   2.632   3.192   7.749
 8172SOL    HW128310   2.586   3.105   7.766
 8172SOL    HW228311   2.723   3.189   7.790
 8173SOL     OW28312   2.480   3.429   8.732
 8173SOL    HW128313   2.475   3.511   8.789
 8173SOL    HW228314   2.569   3.426   8.687
 8174SOL     OW28315   3.214   1.914   7.616
 8174SOL    HW128316   3.249   1.873   7.532
 8174SOL    HW228317   3.124   1.876   7.636
 8175SOL     OW28318   3.162   2.315   8.139
 8175SOL    HW128319   3.103   2.395   8.143
 8175SOL    HW228320   3.177   2.280   8.232
 8176SOL     OW28321   3.455   2.083   8.330
 8176SOL    HW128322   3.371   2.082   8.384
 8176SOL    HW228323   3.457   2.166   8.274
 8177SOL     OW28324   1.901   2.939   7.748
 8177SOL    HW128325   2.000   2.928   7.739
 8177SOL    HW228326   1.861   2.853   7.780
 8178SOL     OW28327   2.737   3.508   7.785
 8178SOL    HW128328   2.660   3.473   7.731
 8178SOL    HW228329   2.705   3.579   7.847
 8179SOL     OW28330   3.617   2.469   9.541
 8179SOL    HW128331   3.605   2.456   9.442
 8179SOL    HW228332   3.587   2.388   9.590
 8180SOL     OW28333   2.093   3.575   9.793
 8180SOL    HW128334   2.127   3.652   9.847
 8180SOL    HW228335   2.137   3.575   9.703
 8181SOL     OW28336   2.092   3.296   9.848
 8181SOL    HW128337   2.066   3.392   9.848
 8181SOL    HW228338   2.021   3.242   9.893
 8182SOL     OW28339   2.468   2.826   9.433
 8182SOL    HW128340   2.475   2.910   9.379
 8182SOL    HW228341   2.514   2.839   9.521
 8183SOL     OW28342   1.984   2.505   9.873
 8183SOL    HW128343   1.939   2.417   9.890
 8183SOL    HW228344   1.983   2.559   9.957
 8184SOL     OW28345   3.704   3.629   9.669
 8184SOL    HW128346   3.758   3.600   9.749
 8184SOL    HW228347   3.734   3.719   9.640
 8185SOL     OW28348   1.889   3.458   9.427
 8185SOL    HW128349   1.870   3.362   9.448
 8185SOL    HW228350   1.856   3.516   9.502
 8186SOL     OW28351   3.551   2.784   9.922
 8186SOL    HW128352   3.646   2.755   9.930
 8186SOL    HW228353   3.543   2.849   9.847
 8187SOL     OW28354   3.503   2.970   9.742
 8187SOL    HW128355   3.589   2.972   9.690
 8187SOL    HW228356   3.517   3.017   9.830
 8188SOL     OW28357   2.475   3.227  10.036
 8188SOL    HW128358   2.426   3.140  10.045
 8188SOL    HW228359   2.452   3.270   9.949
 8189SOL     OW28360   2.671   1.866   9.812
 8189SOL    HW128361   2.711   1.957   9.803
 8189SOL    HW228362   2.571   1.874   9.818
 8190SOL     OW28363   3.387   2.861   9.500
 8190SOL    HW128364   3.324   2.785   9.513
 8190SOL    HW228365   3.435   2.879   9.586
 8191SOL     OW28366   2.460   2.591   9.580
 8191SOL    HW128367   2.484   2.660   9.512
 8191SOL    HW228368   2.382   2.624   9.634
 8192SOL     OW28369   3.438   3.524   9.617
 8192SOL    HW128370   3.527   3.570   9.620
 8192SOL    HW228371   3.417   3.500   9.522
 8193SOL     OW28372   2.903   2.563   9.739
 8193SOL    HW128373   2.929   2.559   9.835
 8193SOL    HW228374   2.818   2.512   9.725
 8194SOL     OW28375   1.938   2.673  10.099
 8194SOL    HW128376   2.037   2.661  10.108
 8194SOL    HW228377   1.914   2.768  10.120
 8195SOL     OW28378   2.727   2.210   9.505
 8195SOL    HW128379   2.786   2.273   9.456
 8195SOL    HW228380   2.746   2.116   9.476
 8196SOL     OW28381   3.224   3.006   9.855
 8196SOL    HW128382   3.307   2.977   9.807
 8196SOL    HW228383   3.175   3.073   9.799
 8197SOL     OW28384   2.870   3.318   9.787
 8197SOL    HW128385   2.824   3.390   9.735
 8197SOL    HW228386   2.866   3.338   9.885
 8198SOL     OW28387   2.213   3.663  10.163
 8198SOL    HW128388   2.263   3.577  10.169
 8198SOL    HW228389   2.278   3.740  10.160
 8199SOL     OW28390   2.183   2.805   9.552
 8199SOL    HW128391   2.265   2.844   9.510
 8199SOL    HW228392   2.156   2.723   9.503
 8200SOL     OW28393   2.973   3.638   9.547
 8200SOL    HW128394   2.913   3.576   9.597
 8200SOL    HW228395   3.004   3.594   9.462
 8201SOL     OW28396   3.494   3.239   9.391
 8201SOL    HW128397   3.462   3.333   9.381
 8201SOL    HW228398   3.418   3.176   9.379
 8202SOL     OW28399   2.326   3.605   9.633
 8202SOL    HW128400   2.359   3.644   9.719
 8202SOL    HW228401   2.402   3.598   9.568
 8203SOL     OW28402   3.262   1.969   9.736
 8203SOL    HW128403   3.238   1.932   9.646
 8203SOL    HW228404   3.361   1.985   9.740
 8204SOL     OW28405   2.244   2.562   9.790
 8204SOL    HW128406   2.289   2.472   9.787
 8204SOL    HW228407   2.150   2.551   9.823
 8205SOL     OW28408   2.476   1.984   9.427
 8205SOL    HW128409   2.574   1.962   9.434
 8205SOL    HW228410   2.445   1.967   9.334
 8206SOL     OW28411   2.401   1.926   9.822
 8206SOL    HW128412   2.320   1.927   9.880
 8206SOL    HW228413   2.404   2.009   9.767
 8207SOL     OW28414   3.296   3.050   9.351
 8207SOL    HW128415   3.328   2.974   9.408
 8207SOL    HW228416   3.204   3.077   9.381
 8208SOL     OW28417   2.159   1.897   9.481
 8208SOL    HW128418   2.208   1.981   9.460
 8208SOL    HW228419   2.221   1.832   9.526
 8209SOL     OW28420   2.797   2.098   9.790
 8209SOL    HW128421   2.749   2.139   9.712
 8209SOL    HW228422   2.896   2.096   9.771
 8210SOL     OW28423   2.321   3.014  10.051
 8210SOL    HW128424   2.250   2.987  10.116
 8210SOL    HW228425   2.295   2.986   9.958
 8211SOL     OW28426   3.133   3.659   9.901
 8211SOL    HW128427   3.177   3.723   9.837
 8211SOL    HW228428   3.083   3.711   9.971
 8212SOL     OW28429   2.894   2.411   9.326
 8212SOL    HW128430   2.853   2.493   9.287
 8212SOL    HW228431   2.958   2.437   9.399
 8213SOL     OW28432   2.728   2.316   9.952
 8213SOL    HW128433   2.696   2.388   9.890
 8213SOL    HW228434   2.752   2.235   9.899
 8214SOL     OW28435   3.719   2.695   9.687
 8214SOL    HW128436   3.761   2.631   9.751
 8214SOL    HW228437   3.681   2.644   9.609
 8215SOL     OW28438   2.350   3.247   9.484
 8215SOL    HW128439   2.263   3.232   9.531
 8215SOL    HW228440   2.333   3.273   9.389
 8216SOL     OW28441   3.252   2.437   9.388
 8216SOL    HW128442   3.198   2.416   9.469
 8216SOL    HW228443   3.343   2.396   9.397
 8217SOL     OW28444   2.389   2.118   9.638
 8217SOL    HW128445   2.416   2.059   9.563
 8217SOL    HW228446   2.389   2.213   9.607
 8218SOL     OW28447   2.567   2.912   9.678
 8218SOL    HW128448   2.553   2.919   9.777
 8218SOL    HW228449   2.651   2.861   9.660
 8219SOL     OW28450   2.229   2.962   9.811
 8219SOL    HW128451   2.222   3.045   9.755
 8219SOL    HW228452   2.233   2.882   9.751
 8220SOL     OW28453   3.114   3.210   9.698
 8220SOL    HW128454   3.164   3.287   9.738
 8220SOL    HW228455   3.019   3.212   9.730
 8221SOL     OW28456   3.444   2.501   9.782
 8221SOL    HW128457   3.413   2.562   9.855
 8221SOL    HW228458   3.494   2.553   9.713
 8222SOL     OW28459   3.071   2.387   9.585
 8222SOL    HW128460   3.084   2.303   9.639
 8222SOL    HW228461   3.042   2.461   9.645
 8223SOL     OW28462   2.169   1.925   9.928
 8223SOL    HW128463   2.158   2.019   9.961
 8223SOL    HW228464   2.164   1.862  10.005
 8224SOL     OW28465   3.484   2.229   9.684
 8224SOL    HW128466   3.486   2.153   9.748
 8224SOL    HW228467   3.436   2.306   9.724
 8225SOL     OW28468   3.402   2.136   9.435
 8225SOL    HW128469   3.341   2.061   9.458
 8225SOL    HW228470   3.424   2.188   9.518
 8226SOL     OW28471   3.165   2.700   9.352
 8226SOL    HW128472   3.199   2.607   9.367
 8226SOL    HW228473   3.183   2.727   9.257
 8227SOL     OW28474   1.870   3.188   9.510
 8227SOL    HW128475   1.777   3.209   9.479
 8227SOL    HW228476   1.880   3.089   9.523
 8228SOL     OW28477   2.677   2.434   9.635
 8228SOL    HW128478   2.684   2.345   9.589
 8228SOL    HW228479   2.583   2.468   9.627
 8229SOL     OW28480   2.335   2.362   9.501
 8229SOL    HW128481   2.396   2.442   9.505
 8229SOL    HW228482   2.240   2.393   9.508
 8230SOL     OW28483   3.164   2.717   9.619
 8230SOL    HW128484   3.078   2.686   9.661
 8230SOL    HW228485   3.160   2.703   9.520
 8231SOL     OW28486   3.588   1.997   9.833
 8231SOL    HW128487   3.661   1.980   9.766
 8231SOL    HW228488   3.557   1.910   9.871
 8232SOL     OW28489   3.250   3.435   9.787
 8232SOL    HW128490   3.317   3.447   9.713
 8232SOL    HW228491   3.210   3.524   9.810
 8233SOL     OW28492   2.534   3.478   9.464
 8233SOL    HW128493   2.543   3.488   9.365
 8233SOL    HW228494   2.494   3.389   9.485
 8234SOL     OW28495   3.056   3.474   9.341
 8234SOL    HW128496   3.062   3.381   9.378
 8234SOL    HW228497   2.997   3.474   9.261
 8235SOL     OW28498   2.778   2.772   9.601
 8235SOL    HW128499   2.841   2.810   9.533
 8235SOL    HW228500   2.818   2.689   9.640
 8236SOL     OW28501   3.366   3.469   9.354
 8236SOL    HW128502   3.274   3.506   9.361
 8236SOL    HW228503   3.404   3.489   9.264
 8237SOL     OW28504   2.452   3.349   9.801
 8237SOL    HW128505   2.494   3.291   9.731
 8237SOL    HW228506   2.408   3.428   9.757
 8238SOL     OW28507   2.117   3.210   9.600
 8238SOL    HW128508   2.021   3.211   9.573
 8238SOL    HW228509   2.129   3.263   9.684
 8239SOL     OW28510   1.934   2.028   9.628
 8239SOL    HW128511   1.917   2.111   9.574
 8239SOL    HW228512   2.024   1.991   9.606
 8240SOL     OW28513   3.045   3.197   9.429
 8240SOL    HW128514   2.946   3.186   9.431
 8240SOL    HW228515   3.079   3.212   9.522
 8241SOL     OW28516   3.087   2.187   9.759
 8241SOL    HW128517   3.152   2.113   9.748
 8241SOL    HW228518   3.107   2.237   9.843
 8242SOL     OW28519   2.456   2.607   9.962
 8242SOL    HW128520   2.506   2.692   9.943
 8242SOL    HW228521   2.368   2.609   9.914
 8243SOL     OW28522   2.721   3.236   9.326
 8243SOL    HW128523   2.675   3.251   9.414
 8243SOL    HW228524   2.765   3.321   9.296
 8244SOL     OW28525   2.945   2.846   9.397
 8244SOL    HW128526   2.922   2.899   9.315
 8244SOL    HW228527   3.026   2.790   9.378
 8245SOL     OW28528   1.941   3.102   9.963
 8245SOL    HW128529   1.940   3.055  10.051
 8245SOL    HW228530   2.023   3.074   9.912
 8246SOL     OW28531   2.290   2.286   9.830
 8246SOL    HW128532   2.320   2.214   9.768
 8246SOL    HW228533   2.251   2.246   9.913
 8247SOL     OW28534   2.632   3.192   9.611
 8247SOL    HW128535   2.586   3.105   9.628
 8247SOL    HW228536   2.723   3.189   9.652
 8248SOL     OW28537   3.214   1.914   9.478
 8248SOL    HW128538   3.249   1.873   9.394
 8248SOL    HW228539   3.124   1.876   9.498
 8249SOL     OW28540   1.901   2.939   9.610
 8249SOL    HW128541   2.000   2.928   9.601
 8249SOL    HW228542   1.861   2.853   9.642
 8250SOL     OW28543   2.737   3.508   9.647
 8250SOL    HW128544   2.660   3.473   9.593
 8250SOL    HW228545   2.705   3.579   9.709
 8251SOL     OW28546   2.092   4.352   0.113
 8251SOL    HW128547   1.999   4.350   0.150
 8251SOL    HW228548   2.093   4.313   0.021
 8252SOL     OW28549   2.087   3.999   0.996
 8252SOL    HW128550   2.122   3.982   1.088
 8252SOL    HW228551   1.999   3.954   0.984
 8253SOL     OW28552   2.431   4.999   1.165
 8253SOL    HW128553   2.338   4.992   1.128
 8253SOL    HW228554   2.442   5.088   1.209
 8254SOL     OW28555   3.417   5.235   0.703
 8254SOL    HW128556   3.360   5.219   0.784
 8254SOL    HW228557   3.358   5.245   0.623
 8255SOL     OW28558   2.997   4.427   0.717
 8255SOL    HW128559   3.054   4.505   0.692
 8255SOL    HW228560   2.937   4.453   0.793
 8256SOL     OW28561   3.617   4.331   0.231
 8256SOL    HW128562   3.605   4.318   0.132
 8256SOL    HW228563   3.587   4.250   0.280
 8257SOL     OW28564   2.630   4.868   1.023
 8257SOL    HW128565   2.552   4.885   1.083
 8257SOL    HW228566   2.664   4.955   0.987
 8258SOL     OW28567   2.712   4.522   1.823
 8258SOL    HW128568   2.708   4.598   1.888
 8258SOL    HW228569   2.734   4.558   1.732
 8259SOL     OW28570   2.547   4.736   0.665
 8259SOL    HW128571   2.616   4.720   0.735
 8259SOL    HW228572   2.474   4.793   0.703
 8260SOL     OW28573   2.548   4.885   1.803
 8260SOL    HW128574   2.608   4.964   1.817
 8260SOL    HW228575   2.462   4.916   1.762
 8261SOL     OW28576   2.197   5.159   1.061
 8261SOL    HW128577   2.119   5.128   1.008
 8261SOL    HW228578   2.255   5.217   1.004
 8262SOL     OW28579   3.322   5.229   1.339
 8262SOL    HW128580   3.346   5.323   1.365
 8262SOL    HW228581   3.306   5.175   1.421
 8263SOL     OW28582   2.300   4.116   1.499
 8263SOL    HW128583   2.382   4.060   1.508
 8263SOL    HW228584   2.219   4.058   1.503
 8264SOL     OW28585   3.465   4.171   0.737
 8264SOL    HW128586   3.391   4.217   0.687
 8264SOL    HW228587   3.516   4.239   0.790
 8265SOL     OW28588   2.093   5.437   0.483
 8265SOL    HW128589   2.127   5.514   0.537
 8265SOL    HW228590   2.137   5.437   0.393
 8266SOL     OW28591   2.989   5.065   1.690
 8266SOL    HW128592   3.036   5.065   1.778
 8266SOL    HW228593   2.941   4.978   1.679
 8267SOL     OW28594   2.092   5.158   0.538
 8267SOL    HW128595   2.066   5.254   0.538
 8267SOL    HW228596   2.021   5.104   0.583
 8268SOL     OW28597   2.102   4.815   0.886
 8268SOL    HW128598   2.116   4.731   0.938
 8268SOL    HW228599   2.047   4.879   0.941
 8269SOL     OW28600   2.482   5.510   1.439
 8269SOL    HW128601   2.390   5.493   1.474
 8269SOL    HW228602   2.510   5.602   1.465
 8270SOL     OW28603   3.456   3.838   1.480
 8270SOL    HW128604   3.438   3.905   1.408
 8270SOL    HW228605   3.453   3.884   1.569
 8271SOL     OW28606   1.984   4.367   0.563
 8271SOL    HW128607   1.939   4.279   0.580
 8271SOL    HW228608   1.983   4.421   0.647
 8272SOL     OW28609   3.704   5.491   0.359
 8272SOL    HW128610   3.758   5.462   0.439
 8272SOL    HW228611   3.734   5.581   0.330
 8273SOL     OW28612   1.889   5.320   0.117
 8273SOL    HW128613   1.870   5.224   0.138
 8273SOL    HW228614   1.856   5.378   0.192
 8274SOL     OW28615   3.551   4.646   0.612
 8274SOL    HW128616   3.646   4.617   0.620
 8274SOL    HW228617   3.543   4.711   0.537
 8275SOL     OW28618   3.503   4.832   0.432
 8275SOL    HW128619   3.589   4.834   0.380
 8275SOL    HW228620   3.517   4.879   0.520
 8276SOL     OW28621   1.975   4.461   1.597
 8276SOL    HW128622   2.063   4.448   1.642
 8276SOL    HW228623   1.962   4.558   1.575
 8277SOL     OW28624   2.475   5.089   0.726
 8277SOL    HW128625   2.426   5.002   0.735
 8277SOL    HW228626   2.452   5.132   0.639
 8278SOL     OW28627   3.155   4.952   1.423
 8278SOL    HW128628   3.192   4.879   1.365
 8278SOL    HW228629   3.207   4.957   1.508
 8279SOL     OW28630   2.671   3.728   0.502
 8279SOL    HW128631   2.711   3.819   0.493
 8279SOL    HW228632   2.571   3.736   0.508
 8280SOL     OW28633   2.059   4.700   1.264
 8280SOL    HW128634   2.148   4.655   1.250
 8280SOL    HW228635   1.986   4.635   1.245
 8281SOL     OW28636   3.387   4.723   0.190
 8281SOL    HW128637   3.324   4.647   0.203
 8281SOL    HW228638   3.435   4.741   0.276
 8282SOL     OW28639   3.049   5.516   1.616
 8282SOL    HW128640   3.073   5.576   1.540
 8282SOL    HW228641   3.056   5.421   1.586
 8283SOL     OW28642   2.179   3.975   1.801
 8283SOL    HW128643   2.250   4.046   1.807
 8283SOL    HW228644   2.091   4.014   1.829
 8284SOL     OW28645   3.328   5.141   0.953
 8284SOL    HW128646   3.269   5.147   1.033
 8284SOL    HW228647   3.313   5.053   0.907
 8285SOL     OW28648   3.529   5.438   0.572
 8285SOL    HW128649   3.488   5.415   0.484
 8285SOL    HW228650   3.511   5.364   0.637
 8286SOL     OW28651   2.460   4.453   0.270
 8286SOL    HW128652   2.484   4.522   0.202
 8286SOL    HW228653   2.382   4.486   0.324
 8287SOL     OW28654   3.143   4.069   0.944
 8287SOL    HW128655   3.057   4.019   0.931
 8287SOL    HW228656   3.205   4.015   1.000
 8288SOL     OW28657   3.438   5.386   0.307
 8288SOL    HW128658   3.527   5.432   0.310
 8288SOL    HW228659   3.417   5.362   0.212
 8289SOL     OW28660   2.669   4.329   1.465
 8289SOL    HW128661   2.622   4.326   1.554
 8289SOL    HW228662   2.618   4.274   1.399
 8290SOL     OW28663   3.256   4.193   1.674
 8290SOL    HW128664   3.236   4.236   1.762
 8290SOL    HW228665   3.334   4.131   1.683
 8291SOL     OW28666   2.835   4.614   1.572
 8291SOL    HW128667   2.881   4.530   1.543
 8291SOL    HW228668   2.779   4.648   1.497
 8292SOL     OW28669   2.853   4.134   1.242
 8292SOL    HW128670   2.776   4.168   1.296
 8292SOL    HW228671   2.819   4.083   1.163
 8293SOL     OW28672   2.903   4.425   0.429
 8293SOL    HW128673   2.929   4.421   0.525
 8293SOL    HW228674   2.818   4.374   0.415
 8294SOL     OW28675   1.938   4.535   0.789
 8294SOL    HW128676   2.037   4.523   0.798
 8294SOL    HW228677   1.914   4.630   0.810
 8295SOL     OW28678   1.992   5.545   1.571
 8295SOL    HW128679   1.982   5.530   1.670
 8295SOL    HW228680   1.906   5.581   1.535
 8296SOL     OW28681   2.727   4.072   0.195
 8296SOL    HW128682   2.786   4.135   0.146
 8296SOL    HW228683   2.746   3.978   0.166
 8297SOL     OW28684   3.581   4.309   1.831
 8297SOL    HW128685   3.555   4.398   1.795
 8297SOL    HW228686   3.579   4.241   1.758
 8298SOL     OW28687   3.224   4.868   0.545
 8298SOL    HW128688   3.307   4.839   0.497
 8298SOL    HW228689   3.175   4.935   0.489
 8299SOL     OW28690   2.412   3.920   0.885
 8299SOL    HW128691   2.407   3.915   0.985
 8299SOL    HW228692   2.414   4.016   0.856
 8300SOL     OW28693   2.870   5.180   0.477
 8300SOL    HW128694   2.824   5.252   0.425
 8300SOL    HW228695   2.866   5.200   0.575
 8301SOL     OW28696   2.213   5.525   0.853
 8301SOL    HW128697   2.263   5.439   0.859
 8301SOL    HW228698   2.278   5.602   0.850
 8302SOL     OW28699   3.657   4.790   0.873
 8302SOL    HW128700   3.595   4.775   0.797
 8302SOL    HW228701   3.605   4.801   0.958
 8303SOL     OW28702   3.089   5.274   1.506
 8303SOL    HW128703   3.095   5.197   1.570
 8303SOL    HW228704   3.037   5.248   1.426
 8304SOL     OW28705   3.320   4.459   0.728
 8304SOL    HW128706   3.315   4.394   0.803
 8304SOL    HW228707   3.400   4.518   0.741
 8305SOL     OW28708   2.323   4.990   1.727
 8305SOL    HW128709   2.273   4.991   1.641
 8305SOL    HW228710   2.260   4.972   1.803
 8306SOL     OW28711   2.973   5.500   0.237
 8306SOL    HW128712   2.913   5.438   0.287
 8306SOL    HW228713   3.004   5.456   0.152
 8307SOL     OW28714   2.064   4.009   1.498
 8307SOL    HW128715   1.984   4.069   1.485
 8307SOL    HW228716   2.054   3.960   1.584
 8308SOL     OW28717   3.494   5.101   0.081
 8308SOL    HW128718   3.462   5.195   0.071
 8308SOL    HW228719   3.418   5.038   0.069
 8309SOL     OW28720   2.326   5.467   0.323
 8309SOL    HW128721   2.359   5.506   0.409
 8309SOL    HW228722   2.402   5.460   0.258
 8310SOL     OW28723   3.262   3.831   0.426
 8310SOL    HW128724   3.238   3.794   0.336
 8310SOL    HW228725   3.361   3.847   0.430
 8311SOL     OW28726   2.111   5.509   1.241
 8311SOL    HW128727   2.168   5.444   1.291
 8311SOL    HW228728   2.095   5.476   1.148
 8312SOL     OW28729   2.802   5.422   0.904
 8312SOL    HW128730   2.882   5.365   0.925
 8312SOL    HW228731   2.753   5.382   0.827
 8313SOL     OW28732   2.244   4.424   0.480
 8313SOL    HW128733   2.289   4.334   0.477
 8313SOL    HW228734   2.150   4.413   0.513
 8314SOL     OW28735   3.409   3.946   1.729
 8314SOL    HW128736   3.404   3.983   1.821
 8314SOL    HW228737   3.337   3.877   1.717
 8315SOL     OW28738   2.476   3.846   0.117
 8315SOL    HW128739   2.574   3.824   0.124
 8315SOL    HW228740   2.445   3.829   0.024
 8316SOL     OW28741   2.643   3.988   1.749
 8316SOL    HW128742   2.710   3.927   1.792
 8316SOL    HW228743   2.570   4.007   1.814
 8317SOL     OW28744   2.750   5.238   1.195
 8317SOL    HW128745   2.727   5.213   1.101
 8317SOL    HW228746   2.811   5.169   1.234
 8318SOL     OW28747   3.213   4.314   1.433
 8318SOL    HW128748   3.241   4.271   1.518
 8318SOL    HW228749   3.238   4.410   1.434
 8319SOL     OW28750   2.665   5.126   0.924
 8319SOL    HW128751   2.755   5.140   0.882
 8319SOL    HW228752   2.594   5.128   0.853
 8320SOL     OW28753   2.784   4.227   0.899
 8320SOL    HW128754   2.759   4.218   0.803
 8320SOL    HW228755   2.832   4.145   0.930
 8321SOL     OW28756   2.401   3.788   0.512
 8321SOL    HW128757   2.320   3.789   0.570
 8321SOL    HW228758   2.404   3.871   0.457
 8322SOL     OW28759   3.296   4.912   0.041
 8322SOL    HW128760   3.328   4.836   0.098
 8322SOL    HW228761   3.204   4.939   0.071
 8323SOL     OW28762   2.797   3.960   0.480
 8323SOL    HW128763   2.749   4.001   0.402
 8323SOL    HW228764   2.896   3.958   0.461
 8324SOL     OW28765   2.938   4.407   1.464
 8324SOL    HW128766   2.858   4.346   1.467
 8324SOL    HW228767   3.019   4.354   1.440
 8325SOL     OW28768   3.089   5.294   0.793
 8325SOL    HW128769   3.110   5.368   0.728
 8325SOL    HW228770   3.157   5.294   0.866
 8326SOL     OW28771   2.321   4.876   0.741
 8326SOL    HW128772   2.250   4.849   0.806
 8326SOL    HW228773   2.295   4.848   0.648
 8327SOL     OW28774   3.133   5.521   0.591
 8327SOL    HW128775   3.177   5.585   0.527
 8327SOL    HW228776   3.083   5.573   0.661
 8328SOL     OW28777   2.894   4.273   0.016
 8328SOL    HW128778   2.853   4.355  -0.023
 8328SOL    HW228779   2.958   4.299   0.089
 8329SOL     OW28780   1.940   4.280   1.386
 8329SOL    HW128781   2.032   4.279   1.345
 8329SOL    HW228782   1.934   4.354   1.453
 8330SOL     OW28783   2.423   3.946   1.147
 8330SOL    HW128784   2.461   3.862   1.184
 8330SOL    HW228785   2.335   3.965   1.191
 8331SOL     OW28786   2.728   4.178   0.642
 8331SOL    HW128787   2.696   4.250   0.580
 8331SOL    HW228788   2.752   4.097   0.589
 8332SOL     OW28789   2.879   3.763   0.753
 8332SOL    HW128790   2.807   3.768   0.684
 8332SOL    HW228791   2.855   3.694   0.822
 8333SOL     OW28792   3.291   4.897   0.867
 8333SOL    HW128793   3.236   4.813   0.860
 8333SOL    HW228794   3.317   4.926   0.775
 8334SOL     OW28795   3.328   4.314   0.992
 8334SOL    HW128796   3.298   4.219   0.999
 8334SOL    HW228797   3.401   4.330   1.058
 8335SOL     OW28798   3.719   4.557   0.377
 8335SOL    HW128799   3.761   4.493   0.441
 8335SOL    HW228800   3.681   4.506   0.299
 8336SOL     OW28801   2.350   5.109   0.174
 8336SOL    HW128802   2.263   5.094   0.221
 8336SOL    HW228803   2.333   5.135   0.079
 8337SOL     OW28804   3.526   5.004   0.657
 8337SOL    HW128805   3.625   5.012   0.671
 8337SOL    HW228806   3.481   5.088   0.688
 8338SOL     OW28807   3.252   4.299   0.078
 8338SOL    HW128808   3.198   4.278   0.159
 8338SOL    HW228809   3.343   4.258   0.087
 8339SOL     OW28810   2.389   3.980   0.328
 8339SOL    HW128811   2.416   3.921   0.253
 8339SOL    HW228812   2.389   4.075   0.297
 8340SOL     OW28813   3.616   4.947   1.588
 8340SOL    HW128814   3.707   4.908   1.575
 8340SOL    HW228815   3.624   5.043   1.612
 8341SOL     OW28816   2.926   5.071   1.340
 8341SOL    HW128817   2.846   5.048   1.395
 8341SOL    HW228818   3.009   5.045   1.389
 8342SOL     OW28819   3.454   5.353   1.625
 8342SOL    HW128820   3.481   5.387   1.535
 8342SOL    HW228821   3.533   5.315   1.671
 8343SOL     OW28822   2.973   4.919   1.100
 8343SOL    HW128823   2.933   4.963   1.181
 8343SOL    HW228824   2.932   4.956   1.017
 8344SOL     OW28825   3.500   4.823   1.079
 8344SOL    HW128826   3.505   4.904   1.138
 8344SOL    HW228827   3.414   4.825   1.028
 8345SOL     OW28828   2.777   3.813   1.402
 8345SOL    HW128829   2.802   3.793   1.307
 8345SOL    HW228830   2.849   3.869   1.444
 8346SOL     OW28831   2.842   4.840   1.719
 8346SOL    HW128832   2.743   4.846   1.729
 8346SOL    HW228833   2.865   4.760   1.663
 8347SOL     OW28834   2.567   4.774   0.368
 8347SOL    HW128835   2.553   4.781   0.467
 8347SOL    HW228836   2.651   4.723   0.350
 8348SOL     OW28837   2.272   4.537   1.251
 8348SOL    HW128838   2.358   4.549   1.301
 8348SOL    HW228839   2.230   4.450   1.278
 8349SOL     OW28840   3.136   4.110   1.262
 8349SOL    HW128841   3.157   4.184   1.326
 8349SOL    HW228842   3.047   4.127   1.219
 8350SOL     OW28843   1.926   5.288   1.331
 8350SOL    HW128844   1.880   5.370   1.297
 8350SOL    HW228845   2.024   5.307   1.340
 8351SOL     OW28846   2.229   4.824   0.501
 8351SOL    HW128847   2.222   4.907   0.445
 8351SOL    HW228848   2.233   4.744   0.441
 8352SOL     OW28849   2.428   4.261   0.865
 8352SOL    HW128850   2.440   4.327   0.791
 8352SOL    HW228851   2.474   4.295   0.948
 8353SOL     OW28852   3.114   5.072   0.388
 8353SOL    HW128853   3.164   5.149   0.428
 8353SOL    HW228854   3.019   5.074   0.420
 8354SOL     OW28855   3.134   5.169   1.142
 8354SOL    HW128856   3.181   5.182   1.229
 8354SOL    HW228857   3.068   5.095   1.151
 8355SOL     OW28858   3.444   4.363   0.472
 8355SOL    HW128859   3.413   4.424   0.545
 8355SOL    HW228860   3.494   4.415   0.403
 8356SOL     OW28861   2.216   5.234   1.329
 8356SOL    HW128862   2.195   5.190   1.242
 8356SOL    HW228863   2.313   5.260   1.332
 8357SOL     OW28864   2.264   4.475   1.598
 8357SOL    HW128865   2.332   4.530   1.551
 8357SOL    HW228866   2.304   4.387   1.625
 8358SOL     OW28867   3.449   4.503   1.670
 8358SOL    HW128868   3.357   4.541   1.665
 8358SOL    HW228869   3.509   4.550   1.605
 8359SOL     OW28870   2.875   3.829   1.770
 8359SOL    HW128871   2.881   3.914   1.718
 8359SOL    HW228872   2.907   3.753   1.713
 8360SOL     OW28873   2.366   3.774   1.740
 8360SOL    HW128874   2.324   3.717   1.670
 8360SOL    HW228875   2.300   3.843   1.772
 8361SOL     OW28876   2.435   4.594   1.029
 8361SOL    HW128877   2.479   4.683   1.020
 8361SOL    HW228878   2.372   4.594   1.106
 8362SOL     OW28879   3.222   4.586   1.045
 8362SOL    HW128880   3.147   4.586   0.979
 8362SOL    HW228881   3.259   4.494   1.054
 8363SOL     OW28882   3.071   4.249   0.275
 8363SOL    HW128883   3.084   4.165   0.329
 8363SOL    HW228884   3.042   4.323   0.335
 8364SOL     OW28885   2.169   3.937   1.231
 8364SOL    HW128886   2.146   3.974   1.321
 8364SOL    HW228887   2.139   3.842   1.225
 8365SOL     OW28888   1.899   5.034   1.282
 8365SOL    HW128889   1.952   4.985   1.350
 8365SOL    HW228890   1.921   5.132   1.287
 8366SOL     OW28891   2.594   4.358   1.064
 8366SOL    HW128892   2.653   4.332   0.988
 8366SOL    HW228893   2.566   4.454   1.053
 8367SOL     OW28894   3.590   4.659   1.854
 8367SOL    HW128895   3.544   4.652   1.765
 8367SOL    HW228896   3.528   4.703   1.920
 8368SOL     OW28897   2.169   3.787   0.618
 8368SOL    HW128898   2.158   3.881   0.651
 8368SOL    HW228899   2.164   3.724   0.695
 8369SOL     OW28900   3.484   4.091   0.374
 8369SOL    HW128901   3.486   4.015   0.438
 8369SOL    HW228902   3.436   4.168   0.414
 8370SOL     OW28903   2.885   4.490   0.966
 8370SOL    HW128904   2.900   4.511   1.062
 8370SOL    HW228905   2.855   4.395   0.957
 8371SOL     OW28906   2.842   5.297   1.700
 8371SOL    HW128907   2.822   5.341   1.612
 8371SOL    HW228908   2.881   5.206   1.684
 8372SOL     OW28909   3.721   5.242   1.605
 8372SOL    HW128910   3.735   5.269   1.510
 8372SOL    HW228911   3.804   5.264   1.658
 8373SOL     OW28912   2.212   4.622   1.804
 8373SOL    HW128913   2.288   4.666   1.852
 8373SOL    HW228914   2.247   4.575   1.722
 8374SOL     OW28915   3.402   3.998   0.125
 8374SOL    HW128916   3.341   3.923   0.148
 8374SOL    HW228917   3.424   4.050   0.208
 8375SOL     OW28918   3.165   4.562   0.042
 8375SOL    HW128919   3.199   4.469   0.057
 8375SOL    HW228920   3.183   4.589  -0.053
 8376SOL     OW28921   2.930   5.057   0.849
 8376SOL    HW128922   2.937   4.973   0.794
 8376SOL    HW228923   2.992   5.126   0.813
 8377SOL     OW28924   2.181   4.534   0.949
 8377SOL    HW128925   2.274   4.570   0.954
 8377SOL    HW228926   2.175   4.449   1.001
 8378SOL     OW28927   2.201   4.233   1.006
 8378SOL    HW128928   2.149   4.150   0.989
 8378SOL    HW228929   2.278   4.238   0.942
 8379SOL     OW28930   3.000   4.104   1.678
 8379SOL    HW128931   2.955   4.167   1.742
 8379SOL    HW228932   3.093   4.135   1.661
 8380SOL     OW28933   3.022   3.931   1.477
 8380SOL    HW128934   3.022   3.995   1.554
 8380SOL    HW228935   3.050   3.979   1.394
 8381SOL     OW28936   1.870   5.050   0.200
 8381SOL    HW128937   1.777   5.071   0.169
 8381SOL    HW228938   1.880   4.951   0.213
 8382SOL     OW28939   1.950   5.525   0.927
 8382SOL    HW128940   1.908   5.439   0.900
 8382SOL    HW228941   2.044   5.528   0.893
 8383SOL     OW28942   2.366   5.292   0.910
 8383SOL    HW128943   2.432   5.366   0.919
 8383SOL    HW228944   2.410   5.213   0.868
 8384SOL     OW28945   2.864   4.520   1.238
 8384SOL    HW128946   2.905   4.488   1.324
 8384SOL    HW228947   2.768   4.493   1.235
 8385SOL     OW28948   1.902   4.268   1.114
 8385SOL    HW128949   1.987   4.235   1.073
 8385SOL    HW228950   1.915   4.283   1.212
 8386SOL     OW28951   2.051   4.244   1.722
 8386SOL    HW128952   2.110   4.204   1.652
 8386SOL    HW228953   1.993   4.315   1.681
 8387SOL     OW28954   3.231   4.674   1.660
 8387SOL    HW128955   3.270   4.763   1.680
 8387SOL    HW228956   3.241   4.654   1.563
 8388SOL     OW28957   2.677   4.296   0.325
 8388SOL    HW128958   2.684   4.207   0.279
 8388SOL    HW228959   2.583   4.330   0.317
 8389SOL     OW28960   3.519   4.328   1.206
 8389SOL    HW128961   3.481   4.259   1.268
 8389SOL    HW228962   3.601   4.292   1.162
 8390SOL     OW28963   2.114   5.288   1.744
 8390SOL    HW128964   2.084   5.345   1.820
 8390SOL    HW228965   2.107   5.191   1.770
 8391SOL     OW28966   2.533   4.188   1.269
 8391SOL    HW128967   2.499   4.099   1.239
 8391SOL    HW228968   2.559   4.242   1.189
 8392SOL     OW28969   2.792   5.402   1.465
 8392SOL    HW128970   2.768   5.384   1.370
 8392SOL    HW228971   2.822   5.496   1.475
 8393SOL     OW28972   2.335   4.224   0.191
 8393SOL    HW128973   2.396   4.304   0.195
 8393SOL    HW228974   2.240   4.255   0.198
 8394SOL     OW28975   2.021   4.861   1.466
 8394SOL    HW128976   2.043   4.800   1.542
 8394SOL    HW228977   2.031   4.812   1.380
 8395SOL     OW28978   3.209   4.783   1.234
 8395SOL    HW128979   3.233   4.720   1.160
 8395SOL    HW228980   3.119   4.823   1.216
 8396SOL     OW28981   3.164   4.579   0.309
 8396SOL    HW128982   3.078   4.548   0.351
 8396SOL    HW228983   3.160   4.565   0.210
 8397SOL     OW28984   3.621   5.471   1.154
 8397SOL    HW128985   3.682   5.501   1.081
 8397SOL    HW228986   3.583   5.382   1.132
 8398SOL     OW28987   3.114   5.455   1.128
 8398SOL    HW128988   3.198   5.460   1.074
 8398SOL    HW228989   3.091   5.359   1.146
 8399SOL     OW28990   1.945   4.982   1.022
 8399SOL    HW128991   1.940   4.981   1.122
 8399SOL    HW228992   1.862   4.941   0.984
 8400SOL     OW28993   2.550   5.386   1.716
 8400SOL    HW128994   2.494   5.467   1.725
 8400SOL    HW228995   2.602   5.390   1.630
 8401SOL     OW28996   2.765   3.810   0.133
 8401SOL    HW128997   2.816   3.811   0.047
 8401SOL    HW228998   2.821   3.768   0.204
 8402SOL     OW28999   3.588   3.859   0.523
 8402SOL    HW129000   3.661   3.842   0.456
 8402SOL    HW229001   3.557   3.772   0.561
 8403SOL     OW29002   3.250   5.297   0.477
 8403SOL    HW129003   3.317   5.309   0.403
 8403SOL    HW229004   3.210   5.386   0.500
 8404SOL     OW29005   1.992   5.518   1.851
 8404SOL    HW129006   1.951   5.444   1.904
 8404SOL    HW229007   2.056   5.569   1.909
 8405SOL     OW29008   3.142   4.651   0.672
 8405SOL    HW129009   3.202   4.570   0.674
 8405SOL    HW229010   3.182   4.720   0.612
 8406SOL     OW29011   2.692   4.997   1.422
 8406SOL    HW129012   2.687   5.030   1.517
 8406SOL    HW229013   2.606   5.016   1.376
 8407SOL     OW29014   2.534   5.340   0.154
 8407SOL    HW129015   2.543   5.350   0.055
 8407SOL    HW229016   2.494   5.251   0.175
 8408SOL     OW29017   3.512   5.444   1.394
 8408SOL    HW129018   3.565   5.454   1.310
 8408SOL    HW229019   3.485   5.534   1.428
 8409SOL     OW29020   3.703   3.899   0.963
 8409SOL    HW129021   3.742   3.814   0.927
 8409SOL    HW229022   3.605   3.901   0.944
 8410SOL     OW29023   2.125   4.050   0.720
 8410SOL    HW129024   2.046   4.101   0.686
 8410SOL    HW229025   2.116   4.035   0.818
 8411SOL     OW29026   3.056   5.336   0.031
 8411SOL    HW129027   3.062   5.243   0.068
 8411SOL    HW229028   2.997   5.336  -0.049
 8412SOL     OW29029   2.684   4.726   1.372
 8412SOL    HW129030   2.724   4.725   1.280
 8412SOL    HW229031   2.694   4.818   1.412
 8413SOL     OW29032   2.778   4.634   0.291
 8413SOL    HW129033   2.841   4.672   0.223
 8413SOL    HW229034   2.818   4.551   0.330
 8414SOL     OW29035   3.366   5.331   0.044
 8414SOL    HW129036   3.274   5.368   0.051
 8414SOL    HW229037   3.404   5.351  -0.046
 8415SOL     OW29038   2.234   5.012   1.490
 8415SOL    HW129039   2.221   5.105   1.456
 8415SOL    HW229040   2.150   4.960   1.477
 8416SOL     OW29041   3.476   5.016   1.289
 8416SOL    HW129042   3.536   5.019   1.369
 8416SOL    HW229043   3.401   5.080   1.302
 8417SOL     OW29044   2.901   4.822   0.696
 8417SOL    HW129045   2.831   4.775   0.750
 8417SOL    HW229046   2.960   4.754   0.653
 8418SOL     OW29047   2.876   3.960   0.971
 8418SOL    HW129048   2.868   3.924   0.878
 8418SOL    HW229049   2.874   3.884   1.036
 8419SOL     OW29050   2.452   5.211   0.491
 8419SOL    HW129051   2.494   5.153   0.421
 8419SOL    HW229052   2.408   5.290   0.447
 8420SOL     OW29053   3.571   4.109   1.381
 8420SOL    HW129054   3.644   4.178   1.385
 8420SOL    HW229055   3.599   4.034   1.322
 8421SOL     OW29056   2.117   5.072   0.290
 8421SOL    HW129057   2.021   5.073   0.263
 8421SOL    HW229058   2.129   5.125   0.374
 8422SOL     OW29059   1.967   4.737   1.726
 8422SOL    HW129060   1.890   4.704   1.780
 8422SOL    HW229061   2.052   4.707   1.768
 8423SOL     OW29062   2.534   3.927   1.489
 8423SOL    HW129063   2.624   3.911   1.449
 8423SOL    HW229064   2.542   3.932   1.588
 8424SOL     OW29065   1.937   4.069   0.033
 8424SOL    HW129066   1.845   4.041   0.004
 8424SOL    HW229067   1.968   4.146  -0.023
 8425SOL     OW29068   3.302   4.580   1.398
 8425SOL    HW129069   3.245   4.632   1.335
 8425SOL    HW229070   3.398   4.592   1.374
 8426SOL     OW29071   1.934   3.890   0.318
 8426SOL    HW129072   1.917   3.973   0.264
 8426SOL    HW229073   2.024   3.853   0.296
 8427SOL     OW29074   3.045   5.059   0.119
 8427SOL    HW129075   2.946   5.048   0.121
 8427SOL    HW229076   3.079   5.074   0.212
 8428SOL     OW29077   2.475   4.566   1.431
 8428SOL    HW129078   2.531   4.647   1.414
 8428SOL    HW229079   2.534   4.486   1.434
 8429SOL     OW29080   3.355   5.491   0.959
 8429SOL    HW129081   3.388   5.555   0.890
 8429SOL    HW229082   3.421   5.485   1.034
 8430SOL     OW29083   2.578   4.289   1.708
 8430SOL    HW129084   2.597   4.354   1.782
 8430SOL    HW229085   2.638   4.209   1.717
 8431SOL     OW29086   3.312   4.944   1.633
 8431SOL    HW129087   3.303   4.934   1.732
 8431SOL    HW229088   3.408   4.937   1.607
 8432SOL     OW29089   2.252   5.465   1.560
 8432SOL    HW129090   2.161   5.506   1.558
 8432SOL    HW229091   2.245   5.371   1.592
 8433SOL     OW29092   3.536   4.607   1.254
 8433SOL    HW129093   3.509   4.518   1.217
 8433SOL    HW229094   3.537   4.675   1.181
 8434SOL     OW29095   3.087   4.049   0.449
 8434SOL    HW129096   3.152   3.975   0.438
 8434SOL    HW229097   3.107   4.099   0.533
 8435SOL     OW29098   2.456   4.469   0.652
 8435SOL    HW129099   2.506   4.554   0.633
 8435SOL    HW229100   2.368   4.471   0.604
 8436SOL     OW29101   3.639   4.066   1.642
 8436SOL    HW129102   3.622   4.097   1.548
 8436SOL    HW229103   3.555   4.029   1.680
 8437SOL     OW29104   3.592   4.658   1.517
 8437SOL    HW129105   3.630   4.749   1.532
 8437SOL    HW229106   3.584   4.641   1.418
 8438SOL     OW29107   2.721   5.098   0.016
 8438SOL    HW129108   2.675   5.113   0.104
 8438SOL    HW229109   2.765   5.183  -0.014
 8439SOL     OW29110   2.523   5.514   0.953
 8439SOL    HW129111   2.477   5.602   0.940
 8439SOL    HW229112   2.622   5.526   0.946
 8440SOL     OW29113   2.721   4.680   0.861
 8440SOL    HW129114   2.775   4.611   0.909
 8440SOL    HW229115   2.689   4.749   0.927
 8441SOL     OW29116   2.945   4.708   0.087
 8441SOL    HW129117   2.922   4.761   0.005
 8441SOL    HW229118   3.026   4.652   0.068
 8442SOL     OW29119   3.723   5.293   0.851
 8442SOL    HW129120   3.652   5.281   0.781
 8442SOL    HW229121   3.724   5.214   0.911
 8443SOL     OW29122   2.083   5.038   1.844
 8443SOL    HW129123   2.018   4.965   1.823
 8443SOL    HW229124   2.087   5.052   1.942
 8444SOL     OW29125   1.941   4.964   0.653
 8444SOL    HW129126   1.940   4.917   0.741
 8444SOL    HW229127   2.023   4.936   0.602
 8445SOL     OW29128   2.534   5.115   1.624
 8445SOL    HW129129   2.456   5.065   1.662
 8445SOL    HW229130   2.531   5.210   1.655
 8446SOL     OW29131   3.686   3.916   1.227
 8446SOL    HW129132   3.682   3.826   1.271
 8446SOL    HW229133   3.689   3.905   1.128
 8447SOL     OW29134   2.290   4.148   0.520
 8447SOL    HW129135   2.320   4.076   0.458
 8447SOL    HW229136   2.251   4.108   0.603
 8448SOL     OW29137   3.567   5.211   1.104
 8448SOL    HW129138   3.474   5.186   1.077
 8448SOL    HW229139   3.593   5.161   1.186
 8449SOL     OW29140   2.179   4.271   1.280
 8449SOL    HW129141   2.217   4.212   1.352
 8449SOL    HW229142   2.219   4.245   1.192
 8450SOL     OW29143   2.674   5.310   0.687
 8450SOL    HW129144   2.706   5.320   0.593
 8450SOL    HW229145   2.595   5.248   0.689
 8451SOL     OW29146   3.286   3.938   1.112
 8451SOL    HW129147   3.338   3.873   1.167
 8451SOL    HW229148   3.237   4.001   1.173
 8452SOL     OW29149   2.863   3.758   1.154
 8452SOL    HW129150   2.800   3.686   1.123
 8452SOL    HW229151   2.956   3.722   1.154
 8453SOL     OW29152   2.632   5.054   0.301
 8453SOL    HW129153   2.586   4.967   0.318
 8453SOL    HW229154   2.723   5.051   0.342
 8454SOL     OW29155   2.480   5.291   1.284
 8454SOL    HW129156   2.475   5.373   1.341
 8454SOL    HW229157   2.569   5.288   1.239
 8455SOL     OW29158   3.214   3.776   0.168
 8455SOL    HW129159   3.249   3.735   0.084
 8455SOL    HW229160   3.124   3.738   0.188
 8456SOL     OW29161   3.162   4.177   0.691
 8456SOL    HW129162   3.103   4.257   0.695
 8456SOL    HW229163   3.177   4.142   0.784
 8457SOL     OW29164   3.455   3.945   0.882
 8457SOL    HW129165   3.371   3.944   0.936
 8457SOL    HW229166   3.457   4.028   0.826
 8458SOL     OW29167   1.901   4.801   0.300
 8458SOL    HW129168   2.000   4.790   0.291
 8458SOL    HW229169   1.861   4.715   0.332
 8459SOL     OW29170   2.737   5.370   0.337
 8459SOL    HW129171   2.660   5.335   0.283
 8459SOL    HW229172   2.705   5.441   0.399
 8460SOL     OW29173   2.092   4.352   1.975
 8460SOL    HW129174   1.999   4.350   2.012
 8460SOL    HW229175   2.093   4.313   1.883
 8461SOL     OW29176   2.087   3.999   2.858
 8461SOL    HW129177   2.122   3.982   2.950
 8461SOL    HW229178   1.999   3.954   2.846
 8462SOL     OW29179   1.881   4.092   2.509
 8462SOL    HW129180   1.799   4.135   2.548
 8462SOL    HW229181   1.853   4.019   2.446
 8463SOL     OW29182   2.431   4.999   3.027
 8463SOL    HW129183   2.338   4.992   2.990
 8463SOL    HW229184   2.442   5.088   3.071
 8464SOL     OW29185   3.417   5.235   2.565
 8464SOL    HW129186   3.360   5.219   2.646
 8464SOL    HW229187   3.358   5.245   2.485
 8465SOL     OW29188   2.997   4.427   2.579
 8465SOL    HW129189   3.054   4.505   2.554
 8465SOL    HW229190   2.937   4.453   2.655
 8466SOL     OW29191   3.617   4.331   2.093
 8466SOL    HW129192   3.605   4.318   1.994
 8466SOL    HW229193   3.587   4.250   2.142
 8467SOL     OW29194   2.630   4.868   2.885
 8467SOL    HW129195   2.552   4.885   2.945
 8467SOL    HW229196   2.664   4.955   2.849
 8468SOL     OW29197   2.712   4.522   3.685
 8468SOL    HW129198   2.708   4.598   3.750
 8468SOL    HW229199   2.734   4.558   3.594
 8469SOL     OW29200   2.547   4.736   2.527
 8469SOL    HW129201   2.616   4.720   2.597
 8469SOL    HW229202   2.474   4.793   2.565
 8470SOL     OW29203   2.548   4.885   3.665
 8470SOL    HW129204   2.608   4.964   3.679
 8470SOL    HW229205   2.462   4.916   3.624
 8471SOL     OW29206   2.197   5.159   2.923
 8471SOL    HW129207   2.119   5.128   2.870
 8471SOL    HW229208   2.255   5.217   2.866
 8472SOL     OW29209   3.322   5.229   3.201
 8472SOL    HW129210   3.346   5.323   3.227
 8472SOL    HW229211   3.306   5.175   3.283
 8473SOL     OW29212   2.300   4.116   3.361
 8473SOL    HW129213   2.382   4.060   3.370
 8473SOL    HW229214   2.219   4.058   3.365
 8474SOL     OW29215   3.465   4.171   2.599
 8474SOL    HW129216   3.391   4.217   2.549
 8474SOL    HW229217   3.516   4.239   2.652
 8475SOL     OW29218   2.093   5.437   2.345
 8475SOL    HW129219   2.127   5.514   2.399
 8475SOL    HW229220   2.137   5.437   2.255
 8476SOL     OW29221   2.989   5.065   3.552
 8476SOL    HW129222   3.036   5.065   3.640
 8476SOL    HW229223   2.941   4.978   3.541
 8477SOL     OW29224   2.092   5.158   2.400
 8477SOL    HW129225   2.066   5.254   2.400
 8477SOL    HW229226   2.021   5.104   2.445
 8478SOL     OW29227   2.102   4.815   2.748
 8478SOL    HW129228   2.116   4.731   2.800
 8478SOL    HW229229   2.047   4.879   2.803
 8479SOL     OW29230   2.482   5.510   3.301
 8479SOL    HW129231   2.390   5.493   3.336
 8479SOL    HW229232   2.510   5.602   3.327
 8480SOL     OW29233   2.468   4.688   1.985
 8480SOL    HW129234   2.475   4.772   1.931
 8480SOL    HW229235   2.514   4.701   2.073
 8481SOL     OW29236   3.456   3.838   3.342
 8481SOL    HW129237   3.438   3.905   3.270
 8481SOL    HW229238   3.453   3.884   3.431
 8482SOL     OW29239   1.984   4.367   2.425
 8482SOL    HW129240   1.939   4.279   2.442
 8482SOL    HW229241   1.983   4.421   2.509
 8483SOL     OW29242   3.704   5.491   2.221
 8483SOL    HW129243   3.758   5.462   2.301
 8483SOL    HW229244   3.734   5.581   2.192
 8484SOL     OW29245   1.889   5.320   1.979
 8484SOL    HW129246   1.870   5.224   2.000
 8484SOL    HW229247   1.856   5.378   2.054
 8485SOL     OW29248   3.551   4.646   2.474
 8485SOL    HW129249   3.646   4.617   2.482
 8485SOL    HW229250   3.543   4.711   2.399
 8486SOL     OW29251   3.503   4.832   2.294
 8486SOL    HW129252   3.589   4.834   2.242
 8486SOL    HW229253   3.517   4.879   2.382
 8487SOL     OW29254   1.975   4.461   3.459
 8487SOL    HW129255   2.063   4.448   3.504
 8487SOL    HW229256   1.962   4.558   3.437
 8488SOL     OW29257   2.475   5.089   2.588
 8488SOL    HW129258   2.426   5.002   2.597
 8488SOL    HW229259   2.452   5.132   2.501
 8489SOL     OW29260   3.155   4.952   3.285
 8489SOL    HW129261   3.192   4.879   3.227
 8489SOL    HW229262   3.207   4.957   3.370
 8490SOL     OW29263   2.671   3.728   2.364
 8490SOL    HW129264   2.711   3.819   2.355
 8490SOL    HW229265   2.571   3.736   2.370
 8491SOL     OW29266   2.059   4.700   3.126
 8491SOL    HW129267   2.148   4.655   3.112
 8491SOL    HW229268   1.986   4.635   3.107
 8492SOL     OW29269   3.387   4.723   2.052
 8492SOL    HW129270   3.324   4.647   2.065
 8492SOL    HW229271   3.435   4.741   2.138
 8493SOL     OW29272   3.049   5.516   3.478
 8493SOL    HW129273   3.073   5.576   3.402
 8493SOL    HW229274   3.056   5.421   3.448
 8494SOL     OW29275   2.179   3.975   3.663
 8494SOL    HW129276   2.250   4.046   3.669
 8494SOL    HW229277   2.091   4.014   3.691
 8495SOL     OW29278   3.328   5.141   2.815
 8495SOL    HW129279   3.269   5.147   2.895
 8495SOL    HW229280   3.313   5.053   2.769
 8496SOL     OW29281   3.529   5.438   2.434
 8496SOL    HW129282   3.488   5.415   2.346
 8496SOL    HW229283   3.511   5.364   2.499
 8497SOL     OW29284   2.460   4.453   2.132
 8497SOL    HW129285   2.484   4.522   2.064
 8497SOL    HW229286   2.382   4.486   2.186
 8498SOL     OW29287   3.143   4.069   2.806
 8498SOL    HW129288   3.057   4.019   2.793
 8498SOL    HW229289   3.205   4.015   2.862
 8499SOL     OW29290   3.438   5.386   2.169
 8499SOL    HW129291   3.527   5.432   2.172
 8499SOL    HW229292   3.417   5.362   2.074
 8500SOL     OW29293   2.669   4.329   3.327
 8500SOL    HW129294   2.622   4.326   3.416
 8500SOL    HW229295   2.618   4.274   3.261
 8501SOL     OW29296   3.256   4.193   3.536
 8501SOL    HW129297   3.236   4.236   3.624
 8501SOL    HW229298   3.334   4.131   3.545
 8502SOL     OW29299   2.835   4.614   3.434
 8502SOL    HW129300   2.881   4.530   3.405
 8502SOL    HW229301   2.779   4.648   3.359
 8503SOL     OW29302   2.853   4.134   3.104
 8503SOL    HW129303   2.776   4.168   3.158
 8503SOL    HW229304   2.819   4.083   3.025
 8504SOL     OW29305   2.903   4.425   2.291
 8504SOL    HW129306   2.929   4.421   2.387
 8504SOL    HW229307   2.818   4.374   2.277
 8505SOL     OW29308   1.938   4.535   2.651
 8505SOL    HW129309   2.037   4.523   2.660
 8505SOL    HW229310   1.914   4.630   2.672
 8506SOL     OW29311   1.992   5.545   3.433
 8506SOL    HW129312   1.982   5.530   3.532
 8506SOL    HW229313   1.906   5.581   3.397
 8507SOL     OW29314   2.727   4.072   2.057
 8507SOL    HW129315   2.786   4.135   2.008
 8507SOL    HW229316   2.746   3.978   2.028
 8508SOL     OW29317   3.581   4.309   3.693
 8508SOL    HW129318   3.555   4.398   3.657
 8508SOL    HW229319   3.579   4.241   3.620
 8509SOL     OW29320   3.224   4.868   2.407
 8509SOL    HW129321   3.307   4.839   2.359
 8509SOL    HW229322   3.175   4.935   2.351
 8510SOL     OW29323   2.412   3.920   2.747
 8510SOL    HW129324   2.407   3.915   2.847
 8510SOL    HW229325   2.414   4.016   2.718
 8511SOL     OW29326   2.870   5.180   2.339
 8511SOL    HW129327   2.824   5.252   2.287
 8511SOL    HW229328   2.866   5.200   2.437
 8512SOL     OW29329   2.213   5.525   2.715
 8512SOL    HW129330   2.263   5.439   2.721
 8512SOL    HW229331   2.278   5.602   2.712
 8513SOL     OW29332   3.657   4.790   2.735
 8513SOL    HW129333   3.595   4.775   2.659
 8513SOL    HW229334   3.605   4.801   2.820
 8514SOL     OW29335   3.089   5.274   3.368
 8514SOL    HW129336   3.095   5.197   3.432
 8514SOL    HW229337   3.037   5.248   3.288
 8515SOL     OW29338   2.183   4.667   2.104
 8515SOL    HW129339   2.265   4.706   2.062
 8515SOL    HW229340   2.156   4.585   2.055
 8516SOL     OW29341   3.320   4.459   2.590
 8516SOL    HW129342   3.315   4.394   2.665
 8516SOL    HW229343   3.400   4.518   2.603
 8517SOL     OW29344   2.973   5.500   2.099
 8517SOL    HW129345   2.913   5.438   2.149
 8517SOL    HW229346   3.004   5.456   2.014
 8518SOL     OW29347   2.064   4.009   3.360
 8518SOL    HW129348   1.984   4.069   3.347
 8518SOL    HW229349   2.054   3.960   3.446
 8519SOL     OW29350   3.494   5.101   1.943
 8519SOL    HW129351   3.462   5.195   1.933
 8519SOL    HW229352   3.418   5.038   1.931
 8520SOL     OW29353   2.326   5.467   2.185
 8520SOL    HW129354   2.359   5.506   2.271
 8520SOL    HW229355   2.402   5.460   2.120
 8521SOL     OW29356   3.262   3.831   2.288
 8521SOL    HW129357   3.238   3.794   2.198
 8521SOL    HW229358   3.361   3.847   2.292
 8522SOL     OW29359   2.111   5.509   3.103
 8522SOL    HW129360   2.168   5.444   3.153
 8522SOL    HW229361   2.095   5.476   3.010
 8523SOL     OW29362   2.802   5.422   2.766
 8523SOL    HW129363   2.882   5.365   2.787
 8523SOL    HW229364   2.753   5.382   2.689
 8524SOL     OW29365   2.244   4.424   2.342
 8524SOL    HW129366   2.289   4.334   2.339
 8524SOL    HW229367   2.150   4.413   2.375
 8525SOL     OW29368   3.409   3.946   3.591
 8525SOL    HW129369   3.404   3.983   3.683
 8525SOL    HW229370   3.337   3.877   3.579
 8526SOL     OW29371   2.476   3.846   1.979
 8526SOL    HW129372   2.574   3.824   1.986
 8526SOL    HW229373   2.445   3.829   1.886
 8527SOL     OW29374   2.643   3.988   3.611
 8527SOL    HW129375   2.710   3.927   3.654
 8527SOL    HW229376   2.570   4.007   3.676
 8528SOL     OW29377   2.750   5.238   3.057
 8528SOL    HW129378   2.727   5.213   2.963
 8528SOL    HW229379   2.811   5.169   3.096
 8529SOL     OW29380   3.213   4.314   3.295
 8529SOL    HW129381   3.241   4.271   3.380
 8529SOL    HW229382   3.238   4.410   3.296
 8530SOL     OW29383   2.665   5.126   2.786
 8530SOL    HW129384   2.755   5.140   2.744
 8530SOL    HW229385   2.594   5.128   2.715
 8531SOL     OW29386   2.784   4.227   2.761
 8531SOL    HW129387   2.759   4.218   2.665
 8531SOL    HW229388   2.832   4.145   2.792
 8532SOL     OW29389   2.401   3.788   2.374
 8532SOL    HW129390   2.320   3.789   2.432
 8532SOL    HW229391   2.404   3.871   2.319
 8533SOL     OW29392   3.296   4.912   1.903
 8533SOL    HW129393   3.328   4.836   1.960
 8533SOL    HW229394   3.204   4.939   1.933
 8534SOL     OW29395   2.159   3.759   2.033
 8534SOL    HW129396   2.208   3.843   2.012
 8534SOL    HW229397   2.221   3.694   2.078
 8535SOL     OW29398   2.797   3.960   2.342
 8535SOL    HW129399   2.749   4.001   2.264
 8535SOL    HW229400   2.896   3.958   2.323
 8536SOL     OW29401   2.938   4.407   3.326
 8536SOL    HW129402   2.858   4.346   3.329
 8536SOL    HW229403   3.019   4.354   3.302
 8537SOL     OW29404   3.089   5.294   2.655
 8537SOL    HW129405   3.110   5.368   2.590
 8537SOL    HW229406   3.157   5.294   2.728
 8538SOL     OW29407   2.321   4.876   2.603
 8538SOL    HW129408   2.250   4.849   2.668
 8538SOL    HW229409   2.295   4.848   2.510
 8539SOL     OW29410   3.133   5.521   2.453
 8539SOL    HW129411   3.177   5.585   2.389
 8539SOL    HW229412   3.083   5.573   2.523
 8540SOL     OW29413   2.894   4.273   1.878
 8540SOL    HW129414   2.853   4.355   1.839
 8540SOL    HW229415   2.958   4.299   1.951
 8541SOL     OW29416   1.940   4.280   3.248
 8541SOL    HW129417   2.032   4.279   3.207
 8541SOL    HW229418   1.934   4.354   3.315
 8542SOL     OW29419   2.423   3.946   3.009
 8542SOL    HW129420   2.461   3.862   3.046
 8542SOL    HW229421   2.335   3.965   3.053
 8543SOL     OW29422   2.728   4.178   2.504
 8543SOL    HW129423   2.696   4.250   2.442
 8543SOL    HW229424   2.752   4.097   2.451
 8544SOL     OW29425   2.879   3.763   2.615
 8544SOL    HW129426   2.807   3.768   2.546
 8544SOL    HW229427   2.855   3.694   2.684
 8545SOL     OW29428   3.291   4.897   2.729
 8545SOL    HW129429   3.236   4.813   2.722
 8545SOL    HW229430   3.317   4.926   2.637
 8546SOL     OW29431   3.328   4.314   2.854
 8546SOL    HW129432   3.298   4.219   2.861
 8546SOL    HW229433   3.401   4.330   2.920
 8547SOL     OW29434   3.719   4.557   2.239
 8547SOL    HW129435   3.761   4.493   2.303
 8547SOL    HW229436   3.681   4.506   2.161
 8548SOL     OW29437   2.350   5.109   2.036
 8548SOL    HW129438   2.263   5.094   2.083
 8548SOL    HW229439   2.333   5.135   1.941
 8549SOL     OW29440   3.526   5.004   2.519
 8549SOL    HW129441   3.625   5.012   2.533
 8549SOL    HW229442   3.481   5.088   2.550
 8550SOL     OW29443   3.252   4.299   1.940
 8550SOL    HW129444   3.198   4.278   2.021
 8550SOL    HW229445   3.343   4.258   1.949
 8551SOL     OW29446   2.389   3.980   2.190
 8551SOL    HW129447   2.416   3.921   2.115
 8551SOL    HW229448   2.389   4.075   2.159
 8552SOL     OW29449   3.616   4.947   3.450
 8552SOL    HW129450   3.707   4.908   3.437
 8552SOL    HW229451   3.624   5.043   3.474
 8553SOL     OW29452   2.926   5.071   3.202
 8553SOL    HW129453   2.846   5.048   3.257
 8553SOL    HW229454   3.009   5.045   3.251
 8554SOL     OW29455   3.454   5.353   3.487
 8554SOL    HW129456   3.481   5.387   3.397
 8554SOL    HW229457   3.533   5.315   3.533
 8555SOL     OW29458   2.973   4.919   2.962
 8555SOL    HW129459   2.933   4.963   3.043
 8555SOL    HW229460   2.932   4.956   2.879
 8556SOL     OW29461   3.500   4.823   2.941
 8556SOL    HW129462   3.505   4.904   3.000
 8556SOL    HW229463   3.414   4.825   2.890
 8557SOL     OW29464   2.777   3.813   3.264
 8557SOL    HW129465   2.802   3.793   3.169
 8557SOL    HW229466   2.849   3.869   3.306
 8558SOL     OW29467   2.842   4.840   3.581
 8558SOL    HW129468   2.743   4.846   3.591
 8558SOL    HW229469   2.865   4.760   3.525
 8559SOL     OW29470   2.567   4.774   2.230
 8559SOL    HW129471   2.553   4.781   2.329
 8559SOL    HW229472   2.651   4.723   2.212
 8560SOL     OW29473   2.272   4.537   3.113
 8560SOL    HW129474   2.358   4.549   3.163
 8560SOL    HW229475   2.230   4.450   3.140
 8561SOL     OW29476   3.136   4.110   3.124
 8561SOL    HW129477   3.157   4.184   3.188
 8561SOL    HW229478   3.047   4.127   3.081
 8562SOL     OW29479   1.926   5.288   3.193
 8562SOL    HW129480   1.880   5.370   3.159
 8562SOL    HW229481   2.024   5.307   3.202
 8563SOL     OW29482   2.229   4.824   2.363
 8563SOL    HW129483   2.222   4.907   2.307
 8563SOL    HW229484   2.233   4.744   2.303
 8564SOL     OW29485   2.428   4.261   2.727
 8564SOL    HW129486   2.440   4.327   2.653
 8564SOL    HW229487   2.474   4.295   2.810
 8565SOL     OW29488   3.114   5.072   2.250
 8565SOL    HW129489   3.164   5.149   2.290
 8565SOL    HW229490   3.019   5.074   2.282
 8566SOL     OW29491   3.134   5.169   3.004
 8566SOL    HW129492   3.181   5.182   3.091
 8566SOL    HW229493   3.068   5.095   3.013
 8567SOL     OW29494   3.444   4.363   2.334
 8567SOL    HW129495   3.413   4.424   2.407
 8567SOL    HW229496   3.494   4.415   2.265
 8568SOL     OW29497   2.216   5.234   3.191
 8568SOL    HW129498   2.195   5.190   3.104
 8568SOL    HW229499   2.313   5.260   3.194
 8569SOL     OW29500   2.264   4.475   3.460
 8569SOL    HW129501   2.332   4.530   3.413
 8569SOL    HW229502   2.304   4.387   3.487
 8570SOL     OW29503   3.449   4.503   3.532
 8570SOL    HW129504   3.357   4.541   3.527
 8570SOL    HW229505   3.509   4.550   3.467
 8571SOL     OW29506   2.875   3.829   3.632
 8571SOL    HW129507   2.881   3.914   3.580
 8571SOL    HW229508   2.907   3.753   3.575
 8572SOL     OW29509   2.366   3.774   3.602
 8572SOL    HW129510   2.324   3.717   3.532
 8572SOL    HW229511   2.300   3.843   3.634
 8573SOL     OW29512   2.435   4.594   2.891
 8573SOL    HW129513   2.479   4.683   2.882
 8573SOL    HW229514   2.372   4.594   2.968
 8574SOL     OW29515   3.222   4.586   2.907
 8574SOL    HW129516   3.147   4.586   2.841
 8574SOL    HW229517   3.259   4.494   2.916
 8575SOL     OW29518   3.071   4.249   2.137
 8575SOL    HW129519   3.084   4.165   2.191
 8575SOL    HW229520   3.042   4.323   2.197
 8576SOL     OW29521   2.169   3.937   3.093
 8576SOL    HW129522   2.146   3.974   3.183
 8576SOL    HW229523   2.139   3.842   3.087
 8577SOL     OW29524   1.899   5.034   3.144
 8577SOL    HW129525   1.952   4.985   3.212
 8577SOL    HW229526   1.921   5.132   3.149
 8578SOL     OW29527   2.594   4.358   2.926
 8578SOL    HW129528   2.653   4.332   2.850
 8578SOL    HW229529   2.566   4.454   2.915
 8579SOL     OW29530   3.590   4.659   3.716
 8579SOL    HW129531   3.544   4.652   3.627
 8579SOL    HW229532   3.528   4.703   3.782
 8580SOL     OW29533   2.169   3.787   2.480
 8580SOL    HW129534   2.158   3.881   2.513
 8580SOL    HW229535   2.164   3.724   2.557
 8581SOL     OW29536   3.484   4.091   2.236
 8581SOL    HW129537   3.486   4.015   2.300
 8581SOL    HW229538   3.436   4.168   2.276
 8582SOL     OW29539   2.885   4.490   2.828
 8582SOL    HW129540   2.900   4.511   2.924
 8582SOL    HW229541   2.855   4.395   2.819
 8583SOL     OW29542   2.842   5.297   3.562
 8583SOL    HW129543   2.822   5.341   3.474
 8583SOL    HW229544   2.881   5.206   3.546
 8584SOL     OW29545   3.721   5.242   3.467
 8584SOL    HW129546   3.735   5.269   3.372
 8584SOL    HW229547   3.804   5.264   3.520
 8585SOL     OW29548   2.212   4.622   3.666
 8585SOL    HW129549   2.288   4.666   3.714
 8585SOL    HW229550   2.247   4.575   3.584
 8586SOL     OW29551   3.402   3.998   1.987
 8586SOL    HW129552   3.341   3.923   2.010
 8586SOL    HW229553   3.424   4.050   2.070
 8587SOL     OW29554   3.165   4.562   1.904
 8587SOL    HW129555   3.199   4.469   1.919
 8587SOL    HW229556   3.183   4.589   1.809
 8588SOL     OW29557   2.930   5.057   2.711
 8588SOL    HW129558   2.937   4.973   2.656
 8588SOL    HW229559   2.992   5.126   2.675
 8589SOL     OW29560   2.181   4.534   2.811
 8589SOL    HW129561   2.274   4.570   2.816
 8589SOL    HW229562   2.175   4.449   2.863
 8590SOL     OW29563   2.201   4.233   2.868
 8590SOL    HW129564   2.149   4.150   2.851
 8590SOL    HW229565   2.278   4.238   2.804
 8591SOL     OW29566   3.000   4.104   3.540
 8591SOL    HW129567   2.955   4.167   3.604
 8591SOL    HW229568   3.093   4.135   3.523
 8592SOL     OW29569   3.022   3.931   3.339
 8592SOL    HW129570   3.022   3.995   3.416
 8592SOL    HW229571   3.050   3.979   3.256
 8593SOL     OW29572   1.870   5.050   2.062
 8593SOL    HW129573   1.777   5.071   2.031
 8593SOL    HW229574   1.880   4.951   2.075
 8594SOL     OW29575   1.950   5.525   2.789
 8594SOL    HW129576   1.908   5.439   2.762
 8594SOL    HW229577   2.044   5.528   2.755
 8595SOL     OW29578   2.366   5.292   2.772
 8595SOL    HW129579   2.432   5.366   2.781
 8595SOL    HW229580   2.410   5.213   2.730
 8596SOL     OW29581   2.864   4.520   3.100
 8596SOL    HW129582   2.905   4.488   3.186
 8596SOL    HW229583   2.768   4.493   3.097
 8597SOL     OW29584   1.902   4.268   2.976
 8597SOL    HW129585   1.987   4.235   2.935
 8597SOL    HW229586   1.915   4.283   3.074
 8598SOL     OW29587   2.051   4.244   3.584
 8598SOL    HW129588   2.110   4.204   3.514
 8598SOL    HW229589   1.993   4.315   3.543
 8599SOL     OW29590   3.231   4.674   3.522
 8599SOL    HW129591   3.270   4.763   3.542
 8599SOL    HW229592   3.241   4.654   3.425
 8600SOL     OW29593   2.677   4.296   2.187
 8600SOL    HW129594   2.684   4.207   2.141
 8600SOL    HW229595   2.583   4.330   2.179
 8601SOL     OW29596   3.519   4.328   3.068
 8601SOL    HW129597   3.481   4.259   3.130
 8601SOL    HW229598   3.601   4.292   3.024
 8602SOL     OW29599   2.533   4.188   3.131
 8602SOL    HW129600   2.499   4.099   3.101
 8602SOL    HW229601   2.559   4.242   3.051
 8603SOL     OW29602   2.792   5.402   3.327
 8603SOL    HW129603   2.768   5.384   3.232
 8603SOL    HW229604   2.822   5.496   3.337
 8604SOL     OW29605   2.335   4.224   2.053
 8604SOL    HW129606   2.396   4.304   2.057
 8604SOL    HW229607   2.240   4.255   2.060
 8605SOL     OW29608   2.021   4.861   3.328
 8605SOL    HW129609   2.043   4.800   3.404
 8605SOL    HW229610   2.031   4.812   3.242
 8606SOL     OW29611   3.209   4.783   3.096
 8606SOL    HW129612   3.233   4.720   3.022
 8606SOL    HW229613   3.119   4.823   3.078
 8607SOL     OW29614   3.164   4.579   2.171
 8607SOL    HW129615   3.078   4.548   2.213
 8607SOL    HW229616   3.160   4.565   2.072
 8608SOL     OW29617   3.621   5.471   3.016
 8608SOL    HW129618   3.682   5.501   2.943
 8608SOL    HW229619   3.583   5.382   2.994
 8609SOL     OW29620   3.114   5.455   2.990
 8609SOL    HW129621   3.198   5.460   2.936
 8609SOL    HW229622   3.091   5.359   3.008
 8610SOL     OW29623   1.945   4.982   2.884
 8610SOL    HW129624   1.940   4.981   2.984
 8610SOL    HW229625   1.862   4.941   2.846
 8611SOL     OW29626   2.550   5.386   3.578
 8611SOL    HW129627   2.494   5.467   3.587
 8611SOL    HW229628   2.602   5.390   3.492
 8612SOL     OW29629   3.588   3.859   2.385
 8612SOL    HW129630   3.661   3.842   2.318
 8612SOL    HW229631   3.557   3.772   2.423
 8613SOL     OW29632   3.250   5.297   2.339
 8613SOL    HW129633   3.317   5.309   2.265
 8613SOL    HW229634   3.210   5.386   2.362
 8614SOL     OW29635   1.992   5.518   3.713
 8614SOL    HW129636   1.951   5.444   3.766
 8614SOL    HW229637   2.056   5.569   3.771
 8615SOL     OW29638   3.142   4.651   2.534
 8615SOL    HW129639   3.202   4.570   2.536
 8615SOL    HW229640   3.182   4.720   2.474
 8616SOL     OW29641   2.692   4.997   3.284
 8616SOL    HW129642   2.687   5.030   3.379
 8616SOL    HW229643   2.606   5.016   3.238
 8617SOL     OW29644   2.534   5.340   2.016
 8617SOL    HW129645   2.543   5.350   1.917
 8617SOL    HW229646   2.494   5.251   2.037
 8618SOL     OW29647   3.512   5.444   3.256
 8618SOL    HW129648   3.565   5.454   3.172
 8618SOL    HW229649   3.485   5.534   3.290
 8619SOL     OW29650   3.703   3.899   2.825
 8619SOL    HW129651   3.742   3.814   2.789
 8619SOL    HW229652   3.605   3.901   2.806
 8620SOL     OW29653   2.125   4.050   2.582
 8620SOL    HW129654   2.046   4.101   2.548
 8620SOL    HW229655   2.116   4.035   2.680
 8621SOL     OW29656   3.056   5.336   1.893
 8621SOL    HW129657   3.062   5.243   1.930
 8621SOL    HW229658   2.997   5.336   1.813
 8622SOL     OW29659   2.684   4.726   3.234
 8622SOL    HW129660   2.724   4.725   3.142
 8622SOL    HW229661   2.694   4.818   3.274
 8623SOL     OW29662   2.778   4.634   2.153
 8623SOL    HW129663   2.841   4.672   2.085
 8623SOL    HW229664   2.818   4.551   2.192
 8624SOL     OW29665   3.366   5.331   1.906
 8624SOL    HW129666   3.274   5.368   1.913
 8624SOL    HW229667   3.404   5.351   1.816
 8625SOL     OW29668   2.234   5.012   3.352
 8625SOL    HW129669   2.221   5.105   3.318
 8625SOL    HW229670   2.150   4.960   3.339
 8626SOL     OW29671   3.476   5.016   3.151
 8626SOL    HW129672   3.536   5.019   3.231
 8626SOL    HW229673   3.401   5.080   3.164
 8627SOL     OW29674   2.901   4.822   2.558
 8627SOL    HW129675   2.831   4.775   2.612
 8627SOL    HW229676   2.960   4.754   2.515
 8628SOL     OW29677   2.876   3.960   2.833
 8628SOL    HW129678   2.868   3.924   2.740
 8628SOL    HW229679   2.874   3.884   2.898
 8629SOL     OW29680   2.452   5.211   2.353
 8629SOL    HW129681   2.494   5.153   2.283
 8629SOL    HW229682   2.408   5.290   2.309
 8630SOL     OW29683   3.571   4.109   3.243
 8630SOL    HW129684   3.644   4.178   3.247
 8630SOL    HW229685   3.599   4.034   3.184
 8631SOL     OW29686   2.117   5.072   2.152
 8631SOL    HW129687   2.021   5.073   2.125
 8631SOL    HW229688   2.129   5.125   2.236
 8632SOL     OW29689   1.967   4.737   3.588
 8632SOL    HW129690   1.890   4.704   3.642
 8632SOL    HW229691   2.052   4.707   3.630
 8633SOL     OW29692   2.534   3.927   3.351
 8633SOL    HW129693   2.624   3.911   3.311
 8633SOL    HW229694   2.542   3.932   3.450
 8634SOL     OW29695   1.937   4.069   1.895
 8634SOL    HW129696   1.845   4.041   1.866
 8634SOL    HW229697   1.968   4.146   1.839
 8635SOL     OW29698   3.302   4.580   3.260
 8635SOL    HW129699   3.245   4.632   3.197
 8635SOL    HW229700   3.398   4.592   3.236
 8636SOL     OW29701   1.934   3.890   2.180
 8636SOL    HW129702   1.917   3.973   2.126
 8636SOL    HW229703   2.024   3.853   2.158
 8637SOL     OW29704   3.045   5.059   1.981
 8637SOL    HW129705   2.946   5.048   1.983
 8637SOL    HW229706   3.079   5.074   2.074
 8638SOL     OW29707   2.475   4.566   3.293
 8638SOL    HW129708   2.531   4.647   3.276
 8638SOL    HW229709   2.534   4.486   3.296
 8639SOL     OW29710   3.355   5.491   2.821
 8639SOL    HW129711   3.388   5.555   2.752
 8639SOL    HW229712   3.421   5.485   2.896
 8640SOL     OW29713   2.578   4.289   3.570
 8640SOL    HW129714   2.597   4.354   3.644
 8640SOL    HW229715   2.638   4.209   3.579
 8641SOL     OW29716   3.312   4.944   3.495
 8641SOL    HW129717   3.303   4.934   3.594
 8641SOL    HW229718   3.408   4.937   3.469
 8642SOL     OW29719   2.252   5.465   3.422
 8642SOL    HW129720   2.161   5.506   3.420
 8642SOL    HW229721   2.245   5.371   3.454
 8643SOL     OW29722   3.536   4.607   3.116
 8643SOL    HW129723   3.509   4.518   3.079
 8643SOL    HW229724   3.537   4.675   3.043
 8644SOL     OW29725   3.087   4.049   2.311
 8644SOL    HW129726   3.152   3.975   2.300
 8644SOL    HW229727   3.107   4.099   2.395
 8645SOL     OW29728   2.456   4.469   2.514
 8645SOL    HW129729   2.506   4.554   2.495
 8645SOL    HW229730   2.368   4.471   2.466
 8646SOL     OW29731   3.639   4.066   3.504
 8646SOL    HW129732   3.622   4.097   3.410
 8646SOL    HW229733   3.555   4.029   3.542
 8647SOL     OW29734   3.592   4.658   3.379
 8647SOL    HW129735   3.630   4.749   3.394
 8647SOL    HW229736   3.584   4.641   3.280
 8648SOL     OW29737   2.721   5.098   1.878
 8648SOL    HW129738   2.675   5.113   1.966
 8648SOL    HW229739   2.765   5.183   1.848
 8649SOL     OW29740   2.523   5.514   2.815
 8649SOL    HW129741   2.477   5.602   2.802
 8649SOL    HW229742   2.622   5.526   2.808
 8650SOL     OW29743   2.721   4.680   2.723
 8650SOL    HW129744   2.775   4.611   2.771
 8650SOL    HW229745   2.689   4.749   2.789
 8651SOL     OW29746   2.945   4.708   1.949
 8651SOL    HW129747   2.922   4.761   1.867
 8651SOL    HW229748   3.026   4.652   1.930
 8652SOL     OW29749   3.723   5.293   2.713
 8652SOL    HW129750   3.652   5.281   2.643
 8652SOL    HW229751   3.724   5.214   2.773
 8653SOL     OW29752   1.941   4.964   2.515
 8653SOL    HW129753   1.940   4.917   2.603
 8653SOL    HW229754   2.023   4.936   2.464
 8654SOL     OW29755   2.534   5.115   3.486
 8654SOL    HW129756   2.456   5.065   3.524
 8654SOL    HW229757   2.531   5.210   3.517
 8655SOL     OW29758   3.686   3.916   3.089
 8655SOL    HW129759   3.682   3.826   3.133
 8655SOL    HW229760   3.689   3.905   2.990
 8656SOL     OW29761   2.290   4.148   2.382
 8656SOL    HW129762   2.320   4.076   2.320
 8656SOL    HW229763   2.251   4.108   2.465
 8657SOL     OW29764   3.567   5.211   2.966
 8657SOL    HW129765   3.474   5.186   2.939
 8657SOL    HW229766   3.593   5.161   3.048
 8658SOL     OW29767   2.179   4.271   3.142
 8658SOL    HW129768   2.217   4.212   3.214
 8658SOL    HW229769   2.219   4.245   3.054
 8659SOL     OW29770   2.674   5.310   2.549
 8659SOL    HW129771   2.706   5.320   2.455
 8659SOL    HW229772   2.595   5.248   2.551
 8660SOL     OW29773   3.286   3.938   2.974
 8660SOL    HW129774   3.338   3.873   3.029
 8660SOL    HW229775   3.237   4.001   3.035
 8661SOL     OW29776   2.863   3.758   3.016
 8661SOL    HW129777   2.800   3.686   2.985
 8661SOL    HW229778   2.956   3.722   3.016
 8662SOL     OW29779   2.632   5.054   2.163
 8662SOL    HW129780   2.586   4.967   2.180
 8662SOL    HW229781   2.723   5.051   2.204
 8663SOL     OW29782   2.480   5.291   3.146
 8663SOL    HW129783   2.475   5.373   3.203
 8663SOL    HW229784   2.569   5.288   3.101
 8664SOL     OW29785   3.214   3.776   2.030
 8664SOL    HW129786   3.249   3.735   1.946
 8664SOL    HW229787   3.124   3.738   2.050
 8665SOL     OW29788   3.162   4.177   2.553
 8665SOL    HW129789   3.103   4.257   2.557
 8665SOL    HW229790   3.177   4.142   2.646
 8666SOL     OW29791   3.455   3.945   2.744
 8666SOL    HW129792   3.371   3.944   2.798
 8666SOL    HW229793   3.457   4.028   2.688
 8667SOL     OW29794   1.901   4.801   2.162
 8667SOL    HW129795   2.000   4.790   2.153
 8667SOL    HW229796   1.861   4.715   2.194
 8668SOL     OW29797   2.737   5.370   2.199
 8668SOL    HW129798   2.660   5.335   2.145
 8668SOL    HW229799   2.705   5.441   2.261
 8669SOL     OW29800   2.092   4.352   3.837
 8669SOL    HW129801   1.999   4.350   3.874
 8669SOL    HW229802   2.093   4.313   3.745
 8670SOL     OW29803   2.087   3.999   4.720
 8670SOL    HW129804   2.122   3.982   4.812
 8670SOL    HW229805   1.999   3.954   4.708
 8671SOL     OW29806   1.881   4.092   4.371
 8671SOL    HW129807   1.799   4.135   4.410
 8671SOL    HW229808   1.853   4.019   4.308
 8672SOL     OW29809   2.431   4.999   4.889
 8672SOL    HW129810   2.338   4.992   4.852
 8672SOL    HW229811   2.442   5.088   4.933
 8673SOL     OW29812   3.417   5.235   4.427
 8673SOL    HW129813   3.360   5.219   4.508
 8673SOL    HW229814   3.358   5.245   4.347
 8674SOL     OW29815   2.997   4.427   4.441
 8674SOL    HW129816   3.054   4.505   4.416
 8674SOL    HW229817   2.937   4.453   4.517
 8675SOL     OW29818   3.617   4.331   3.955
 8675SOL    HW129819   3.605   4.318   3.856
 8675SOL    HW229820   3.587   4.250   4.004
 8676SOL     OW29821   2.630   4.868   4.747
 8676SOL    HW129822   2.552   4.885   4.807
 8676SOL    HW229823   2.664   4.955   4.711
 8677SOL     OW29824   2.712   4.522   5.547
 8677SOL    HW129825   2.708   4.598   5.612
 8677SOL    HW229826   2.734   4.558   5.456
 8678SOL     OW29827   2.547   4.736   4.389
 8678SOL    HW129828   2.616   4.720   4.459
 8678SOL    HW229829   2.474   4.793   4.427
 8679SOL     OW29830   2.548   4.885   5.527
 8679SOL    HW129831   2.608   4.964   5.541
 8679SOL    HW229832   2.462   4.916   5.486
 8680SOL     OW29833   2.197   5.159   4.785
 8680SOL    HW129834   2.119   5.128   4.732
 8680SOL    HW229835   2.255   5.217   4.728
 8681SOL     OW29836   3.322   5.229   5.063
 8681SOL    HW129837   3.346   5.323   5.089
 8681SOL    HW229838   3.306   5.175   5.145
 8682SOL     OW29839   2.300   4.116   5.223
 8682SOL    HW129840   2.382   4.060   5.232
 8682SOL    HW229841   2.219   4.058   5.227
 8683SOL     OW29842   3.465   4.171   4.461
 8683SOL    HW129843   3.391   4.217   4.411
 8683SOL    HW229844   3.516   4.239   4.514
 8684SOL     OW29845   2.989   5.065   5.414
 8684SOL    HW129846   3.036   5.065   5.502
 8684SOL    HW229847   2.941   4.978   5.403
 8685SOL     OW29848   2.102   4.815   4.610
 8685SOL    HW129849   2.116   4.731   4.662
 8685SOL    HW229850   2.047   4.879   4.665
 8686SOL     OW29851   2.482   5.510   5.163
 8686SOL    HW129852   2.390   5.493   5.198
 8686SOL    HW229853   2.510   5.602   5.189
 8687SOL     OW29854   2.468   4.688   3.847
 8687SOL    HW129855   2.475   4.772   3.793
 8687SOL    HW229856   2.514   4.701   3.935
 8688SOL     OW29857   3.456   3.838   5.204
 8688SOL    HW129858   3.438   3.905   5.132
 8688SOL    HW229859   3.453   3.884   5.293
 8689SOL     OW29860   1.984   4.367   4.287
 8689SOL    HW129861   1.939   4.279   4.304
 8689SOL    HW229862   1.983   4.421   4.371
 8690SOL     OW29863   3.704   5.491   4.083
 8690SOL    HW129864   3.758   5.462   4.163
 8690SOL    HW229865   3.734   5.581   4.054
 8691SOL     OW29866   3.551   4.646   4.336
 8691SOL    HW129867   3.646   4.617   4.344
 8691SOL    HW229868   3.543   4.711   4.261
 8692SOL     OW29869   3.503   4.832   4.156
 8692SOL    HW129870   3.589   4.834   4.104
 8692SOL    HW229871   3.517   4.879   4.244
 8693SOL     OW29872   2.475   5.089   4.450
 8693SOL    HW129873   2.426   5.002   4.459
 8693SOL    HW229874   2.452   5.132   4.363
 8694SOL     OW29875   3.155   4.952   5.147
 8694SOL    HW129876   3.192   4.879   5.089
 8694SOL    HW229877   3.207   4.957   5.232
 8695SOL     OW29878   2.671   3.728   4.226
 8695SOL    HW129879   2.711   3.819   4.217
 8695SOL    HW229880   2.571   3.736   4.232
 8696SOL     OW29881   2.059   4.700   4.988
 8696SOL    HW129882   2.148   4.655   4.974
 8696SOL    HW229883   1.986   4.635   4.969
 8697SOL     OW29884   3.387   4.723   3.914
 8697SOL    HW129885   3.324   4.647   3.927
 8697SOL    HW229886   3.435   4.741   4.000
 8698SOL     OW29887   3.049   5.516   5.340
 8698SOL    HW129888   3.073   5.576   5.264
 8698SOL    HW229889   3.056   5.421   5.310
 8699SOL     OW29890   2.179   3.975   5.525
 8699SOL    HW129891   2.250   4.046   5.531
 8699SOL    HW229892   2.091   4.014   5.553
 8700SOL     OW29893   3.328   5.141   4.677
 8700SOL    HW129894   3.269   5.147   4.757
 8700SOL    HW229895   3.313   5.053   4.631
 8701SOL     OW29896   3.529   5.438   4.296
 8701SOL    HW129897   3.488   5.415   4.208
 8701SOL    HW229898   3.511   5.364   4.361
 8702SOL     OW29899   2.460   4.453   3.994
 8702SOL    HW129900   2.484   4.522   3.926
 8702SOL    HW229901   2.382   4.486   4.048
 8703SOL     OW29902   3.143   4.069   4.668
 8703SOL    HW129903   3.057   4.019   4.655
 8703SOL    HW229904   3.205   4.015   4.724
 8704SOL     OW29905   3.438   5.386   4.031
 8704SOL    HW129906   3.527   5.432   4.034
 8704SOL    HW229907   3.417   5.362   3.936
 8705SOL     OW29908   2.669   4.329   5.189
 8705SOL    HW129909   2.622   4.326   5.278
 8705SOL    HW229910   2.618   4.274   5.123
 8706SOL     OW29911   3.256   4.193   5.398
 8706SOL    HW129912   3.236   4.236   5.486
 8706SOL    HW229913   3.334   4.131   5.407
 8707SOL     OW29914   2.835   4.614   5.296
 8707SOL    HW129915   2.881   4.530   5.267
 8707SOL    HW229916   2.779   4.648   5.221
 8708SOL     OW29917   2.853   4.134   4.966
 8708SOL    HW129918   2.776   4.168   5.020
 8708SOL    HW229919   2.819   4.083   4.887
 8709SOL     OW29920   2.903   4.425   4.153
 8709SOL    HW129921   2.929   4.421   4.249
 8709SOL    HW229922   2.818   4.374   4.139
 8710SOL     OW29923   1.938   4.535   4.513
 8710SOL    HW129924   2.037   4.523   4.522
 8710SOL    HW229925   1.914   4.630   4.534
 8711SOL     OW29926   1.992   5.545   5.295
 8711SOL    HW129927   1.982   5.530   5.394
 8711SOL    HW229928   1.906   5.581   5.259
 8712SOL     OW29929   2.727   4.072   3.919
 8712SOL    HW129930   2.786   4.135   3.870
 8712SOL    HW229931   2.746   3.978   3.890
 8713SOL     OW29932   3.581   4.309   5.555
 8713SOL    HW129933   3.555   4.398   5.519
 8713SOL    HW229934   3.579   4.241   5.482
 8714SOL     OW29935   3.224   4.868   4.269
 8714SOL    HW129936   3.307   4.839   4.221
 8714SOL    HW229937   3.175   4.935   4.213
 8715SOL     OW29938   2.412   3.920   4.609
 8715SOL    HW129939   2.407   3.915   4.709
 8715SOL    HW229940   2.414   4.016   4.580
 8716SOL     OW29941   2.870   5.180   4.201
 8716SOL    HW129942   2.824   5.252   4.149
 8716SOL    HW229943   2.866   5.200   4.299
 8717SOL     OW29944   2.213   5.525   4.577
 8717SOL    HW129945   2.263   5.439   4.583
 8717SOL    HW229946   2.278   5.602   4.574
 8718SOL     OW29947   3.657   4.790   4.597
 8718SOL    HW129948   3.595   4.775   4.521
 8718SOL    HW229949   3.605   4.801   4.682
 8719SOL     OW29950   3.089   5.274   5.230
 8719SOL    HW129951   3.095   5.197   5.294
 8719SOL    HW229952   3.037   5.248   5.150
 8720SOL     OW29953   2.183   4.667   3.966
 8720SOL    HW129954   2.265   4.706   3.924
 8720SOL    HW229955   2.156   4.585   3.917
 8721SOL     OW29956   3.320   4.459   4.452
 8721SOL    HW129957   3.315   4.394   4.527
 8721SOL    HW229958   3.400   4.518   4.465
 8722SOL     OW29959   2.323   4.990   5.451
 8722SOL    HW129960   2.273   4.991   5.365
 8722SOL    HW229961   2.260   4.972   5.527
 8723SOL     OW29962   2.973   5.500   3.961
 8723SOL    HW129963   2.913   5.438   4.011
 8723SOL    HW229964   3.004   5.456   3.876
 8724SOL     OW29965   2.064   4.009   5.222
 8724SOL    HW129966   1.984   4.069   5.209
 8724SOL    HW229967   2.054   3.960   5.308
 8725SOL     OW29968   3.494   5.101   3.805
 8725SOL    HW129969   3.462   5.195   3.795
 8725SOL    HW229970   3.418   5.038   3.793
 8726SOL     OW29971   2.326   5.467   4.047
 8726SOL    HW129972   2.359   5.506   4.133
 8726SOL    HW229973   2.402   5.460   3.982
 8727SOL     OW29974   3.262   3.831   4.150
 8727SOL    HW129975   3.238   3.794   4.060
 8727SOL    HW229976   3.361   3.847   4.154
 8728SOL     OW29977   2.111   5.509   4.965
 8728SOL    HW129978   2.168   5.444   5.015
 8728SOL    HW229979   2.095   5.476   4.872
 8729SOL     OW29980   2.802   5.422   4.628
 8729SOL    HW129981   2.882   5.365   4.649
 8729SOL    HW229982   2.753   5.382   4.551
 8730SOL     OW29983   2.244   4.424   4.204
 8730SOL    HW129984   2.289   4.334   4.201
 8730SOL    HW229985   2.150   4.413   4.237
 8731SOL     OW29986   3.409   3.946   5.453
 8731SOL    HW129987   3.404   3.983   5.545
 8731SOL    HW229988   3.337   3.877   5.441
 8732SOL     OW29989   2.476   3.846   3.841
 8732SOL    HW129990   2.574   3.824   3.848
 8732SOL    HW229991   2.445   3.829   3.748
 8733SOL     OW29992   2.643   3.988   5.473
 8733SOL    HW129993   2.710   3.927   5.516
 8733SOL    HW229994   2.570   4.007   5.538
 8734SOL     OW29995   2.750   5.238   4.919
 8734SOL    HW129996   2.727   5.213   4.825
 8734SOL    HW229997   2.811   5.169   4.958
 8735SOL     OW29998   3.213   4.314   5.157
 8735SOL    HW129999   3.241   4.271   5.242
 8735SOL    HW230000   3.238   4.410   5.158
 8736SOL     OW30001   2.665   5.126   4.648
 8736SOL    HW130002   2.755   5.140   4.606
 8736SOL    HW230003   2.594   5.128   4.577
 8737SOL     OW30004   2.784   4.227   4.623
 8737SOL    HW130005   2.759   4.218   4.527
 8737SOL    HW230006   2.832   4.145   4.654
 8738SOL     OW30007   2.401   3.788   4.236
 8738SOL    HW130008   2.320   3.789   4.294
 8738SOL    HW230009   2.404   3.871   4.181
 8739SOL     OW30010   3.296   4.912   3.765
 8739SOL    HW130011   3.328   4.836   3.822
 8739SOL    HW230012   3.204   4.939   3.795
 8740SOL     OW30013   2.159   3.759   3.895
 8740SOL    HW130014   2.208   3.843   3.874
 8740SOL    HW230015   2.221   3.694   3.940
 8741SOL     OW30016   2.797   3.960   4.204
 8741SOL    HW130017   2.749   4.001   4.126
 8741SOL    HW230018   2.896   3.958   4.185
 8742SOL     OW30019   2.938   4.407   5.188
 8742SOL    HW130020   2.858   4.346   5.191
 8742SOL    HW230021   3.019   4.354   5.164
 8743SOL     OW30022   3.089   5.294   4.517
 8743SOL    HW130023   3.110   5.368   4.452
 8743SOL    HW230024   3.157   5.294   4.590
 8744SOL     OW30025   2.321   4.876   4.465
 8744SOL    HW130026   2.250   4.849   4.530
 8744SOL    HW230027   2.295   4.848   4.372
 8745SOL     OW30028   3.133   5.521   4.315
 8745SOL    HW130029   3.177   5.585   4.251
 8745SOL    HW230030   3.083   5.573   4.385
 8746SOL     OW30031   2.894   4.273   3.740
 8746SOL    HW130032   2.853   4.355   3.701
 8746SOL    HW230033   2.958   4.299   3.813
 8747SOL     OW30034   1.940   4.280   5.110
 8747SOL    HW130035   2.032   4.279   5.069
 8747SOL    HW230036   1.934   4.354   5.177
 8748SOL     OW30037   2.423   3.946   4.871
 8748SOL    HW130038   2.461   3.862   4.908
 8748SOL    HW230039   2.335   3.965   4.915
 8749SOL     OW30040   2.728   4.178   4.366
 8749SOL    HW130041   2.696   4.250   4.304
 8749SOL    HW230042   2.752   4.097   4.313
 8750SOL     OW30043   2.879   3.763   4.477
 8750SOL    HW130044   2.807   3.768   4.408
 8750SOL    HW230045   2.855   3.694   4.546
 8751SOL     OW30046   3.291   4.897   4.591
 8751SOL    HW130047   3.236   4.813   4.584
 8751SOL    HW230048   3.317   4.926   4.499
 8752SOL     OW30049   3.328   4.314   4.716
 8752SOL    HW130050   3.298   4.219   4.723
 8752SOL    HW230051   3.401   4.330   4.782
 8753SOL     OW30052   3.719   4.557   4.101
 8753SOL    HW130053   3.761   4.493   4.165
 8753SOL    HW230054   3.681   4.506   4.023
 8754SOL     OW30055   3.526   5.004   4.381
 8754SOL    HW130056   3.625   5.012   4.395
 8754SOL    HW230057   3.481   5.088   4.412
 8755SOL     OW30058   3.252   4.299   3.802
 8755SOL    HW130059   3.198   4.278   3.883
 8755SOL    HW230060   3.343   4.258   3.811
 8756SOL     OW30061   2.389   3.980   4.052
 8756SOL    HW130062   2.416   3.921   3.977
 8756SOL    HW230063   2.389   4.075   4.021
 8757SOL     OW30064   3.616   4.947   5.312
 8757SOL    HW130065   3.707   4.908   5.299
 8757SOL    HW230066   3.624   5.043   5.336
 8758SOL     OW30067   2.926   5.071   5.064
 8758SOL    HW130068   2.846   5.048   5.119
 8758SOL    HW230069   3.009   5.045   5.113
 8759SOL     OW30070   3.454   5.353   5.349
 8759SOL    HW130071   3.481   5.387   5.259
 8759SOL    HW230072   3.533   5.315   5.395
 8760SOL     OW30073   2.973   4.919   4.824
 8760SOL    HW130074   2.933   4.963   4.905
 8760SOL    HW230075   2.932   4.956   4.741
 8761SOL     OW30076   3.500   4.823   4.803
 8761SOL    HW130077   3.505   4.904   4.862
 8761SOL    HW230078   3.414   4.825   4.752
 8762SOL     OW30079   2.777   3.813   5.126
 8762SOL    HW130080   2.802   3.793   5.031
 8762SOL    HW230081   2.849   3.869   5.168
 8763SOL     OW30082   2.842   4.840   5.443
 8763SOL    HW130083   2.743   4.846   5.453
 8763SOL    HW230084   2.865   4.760   5.387
 8764SOL     OW30085   2.567   4.774   4.092
 8764SOL    HW130086   2.553   4.781   4.191
 8764SOL    HW230087   2.651   4.723   4.074
 8765SOL     OW30088   2.272   4.537   4.975
 8765SOL    HW130089   2.358   4.549   5.025
 8765SOL    HW230090   2.230   4.450   5.002
 8766SOL     OW30091   3.136   4.110   4.986
 8766SOL    HW130092   3.157   4.184   5.050
 8766SOL    HW230093   3.047   4.127   4.943
 8767SOL     OW30094   1.926   5.288   5.055
 8767SOL    HW130095   1.880   5.370   5.021
 8767SOL    HW230096   2.024   5.307   5.064
 8768SOL     OW30097   2.229   4.824   4.225
 8768SOL    HW130098   2.222   4.907   4.169
 8768SOL    HW230099   2.233   4.744   4.165
 8769SOL     OW30100   2.428   4.261   4.589
 8769SOL    HW130101   2.440   4.327   4.515
 8769SOL    HW230102   2.474   4.295   4.672
 8770SOL     OW30103   3.114   5.072   4.112
 8770SOL    HW130104   3.164   5.149   4.152
 8770SOL    HW230105   3.019   5.074   4.144
 8771SOL     OW30106   3.134   5.169   4.866
 8771SOL    HW130107   3.181   5.182   4.953
 8771SOL    HW230108   3.068   5.095   4.875
 8772SOL     OW30109   3.444   4.363   4.196
 8772SOL    HW130110   3.413   4.424   4.269
 8772SOL    HW230111   3.494   4.415   4.127
 8773SOL     OW30112   2.216   5.234   5.053
 8773SOL    HW130113   2.195   5.190   4.966
 8773SOL    HW230114   2.313   5.260   5.056
 8774SOL     OW30115   2.264   4.475   5.322
 8774SOL    HW130116   2.332   4.530   5.275
 8774SOL    HW230117   2.304   4.387   5.349
 8775SOL     OW30118   3.449   4.503   5.394
 8775SOL    HW130119   3.357   4.541   5.389
 8775SOL    HW230120   3.509   4.550   5.329
 8776SOL     OW30121   2.875   3.829   5.494
 8776SOL    HW130122   2.881   3.914   5.442
 8776SOL    HW230123   2.907   3.753   5.437
 8777SOL     OW30124   2.366   3.774   5.464
 8777SOL    HW130125   2.324   3.717   5.394
 8777SOL    HW230126   2.300   3.843   5.496
 8778SOL     OW30127   2.435   4.594   4.753
 8778SOL    HW130128   2.479   4.683   4.744
 8778SOL    HW230129   2.372   4.594   4.830
 8779SOL     OW30130   3.222   4.586   4.769
 8779SOL    HW130131   3.147   4.586   4.703
 8779SOL    HW230132   3.259   4.494   4.778
 8780SOL     OW30133   3.071   4.249   3.999
 8780SOL    HW130134   3.084   4.165   4.053
 8780SOL    HW230135   3.042   4.323   4.059
 8781SOL     OW30136   2.169   3.937   4.955
 8781SOL    HW130137   2.146   3.974   5.045
 8781SOL    HW230138   2.139   3.842   4.949
 8782SOL     OW30139   1.899   5.034   5.006
 8782SOL    HW130140   1.952   4.985   5.074
 8782SOL    HW230141   1.921   5.132   5.011
 8783SOL     OW30142   2.594   4.358   4.788
 8783SOL    HW130143   2.653   4.332   4.712
 8783SOL    HW230144   2.566   4.454   4.777
 8784SOL     OW30145   3.590   4.659   5.578
 8784SOL    HW130146   3.544   4.652   5.489
 8784SOL    HW230147   3.528   4.703   5.644
 8785SOL     OW30148   2.169   3.787   4.342
 8785SOL    HW130149   2.158   3.881   4.375
 8785SOL    HW230150   2.164   3.724   4.419
 8786SOL     OW30151   3.484   4.091   4.098
 8786SOL    HW130152   3.486   4.015   4.162
 8786SOL    HW230153   3.436   4.168   4.138
 8787SOL     OW30154   2.885   4.490   4.690
 8787SOL    HW130155   2.900   4.511   4.786
 8787SOL    HW230156   2.855   4.395   4.681
 8788SOL     OW30157   2.842   5.297   5.424
 8788SOL    HW130158   2.822   5.341   5.336
 8788SOL    HW230159   2.881   5.206   5.408
 8789SOL     OW30160   3.721   5.242   5.329
 8789SOL    HW130161   3.735   5.269   5.234
 8789SOL    HW230162   3.804   5.264   5.382
 8790SOL     OW30163   2.212   4.622   5.528
 8790SOL    HW130164   2.288   4.666   5.576
 8790SOL    HW230165   2.247   4.575   5.446
 8791SOL     OW30166   3.402   3.998   3.849
 8791SOL    HW130167   3.341   3.923   3.872
 8791SOL    HW230168   3.424   4.050   3.932
 8792SOL     OW30169   3.165   4.562   3.766
 8792SOL    HW130170   3.199   4.469   3.781
 8792SOL    HW230171   3.183   4.589   3.671
 8793SOL     OW30172   2.930   5.057   4.573
 8793SOL    HW130173   2.937   4.973   4.518
 8793SOL    HW230174   2.992   5.126   4.537
 8794SOL     OW30175   2.181   4.534   4.673
 8794SOL    HW130176   2.274   4.570   4.678
 8794SOL    HW230177   2.175   4.449   4.725
 8795SOL     OW30178   2.201   4.233   4.730
 8795SOL    HW130179   2.149   4.150   4.713
 8795SOL    HW230180   2.278   4.238   4.666
 8796SOL     OW30181   3.000   4.104   5.402
 8796SOL    HW130182   2.955   4.167   5.466
 8796SOL    HW230183   3.093   4.135   5.385
 8797SOL     OW30184   3.022   3.931   5.201
 8797SOL    HW130185   3.022   3.995   5.278
 8797SOL    HW230186   3.050   3.979   5.118
 8798SOL     OW30187   1.870   5.050   3.924
 8798SOL    HW130188   1.777   5.071   3.893
 8798SOL    HW230189   1.880   4.951   3.937
 8799SOL     OW30190   1.950   5.525   4.651
 8799SOL    HW130191   1.908   5.439   4.624
 8799SOL    HW230192   2.044   5.528   4.617
 8800SOL     OW30193   2.366   5.292   4.634
 8800SOL    HW130194   2.432   5.366   4.643
 8800SOL    HW230195   2.410   5.213   4.592
 8801SOL     OW30196   2.864   4.520   4.962
 8801SOL    HW130197   2.905   4.488   5.048
 8801SOL    HW230198   2.768   4.493   4.959
 8802SOL     OW30199   1.902   4.268   4.838
 8802SOL    HW130200   1.987   4.235   4.797
 8802SOL    HW230201   1.915   4.283   4.936
 8803SOL     OW30202   2.051   4.244   5.446
 8803SOL    HW130203   2.110   4.204   5.376
 8803SOL    HW230204   1.993   4.315   5.405
 8804SOL     OW30205   3.231   4.674   5.384
 8804SOL    HW130206   3.270   4.763   5.404
 8804SOL    HW230207   3.241   4.654   5.287
 8805SOL     OW30208   2.677   4.296   4.049
 8805SOL    HW130209   2.684   4.207   4.003
 8805SOL    HW230210   2.583   4.330   4.041
 8806SOL     OW30211   3.519   4.328   4.930
 8806SOL    HW130212   3.481   4.259   4.992
 8806SOL    HW230213   3.601   4.292   4.886
 8807SOL     OW30214   2.114   5.288   5.468
 8807SOL    HW130215   2.084   5.345   5.544
 8807SOL    HW230216   2.107   5.191   5.494
 8808SOL     OW30217   2.533   4.188   4.993
 8808SOL    HW130218   2.499   4.099   4.963
 8808SOL    HW230219   2.559   4.242   4.913
 8809SOL     OW30220   2.792   5.402   5.189
 8809SOL    HW130221   2.768   5.384   5.094
 8809SOL    HW230222   2.822   5.496   5.199
 8810SOL     OW30223   2.335   4.224   3.915
 8810SOL    HW130224   2.396   4.304   3.919
 8810SOL    HW230225   2.240   4.255   3.922
 8811SOL     OW30226   3.209   4.783   4.958
 8811SOL    HW130227   3.233   4.720   4.884
 8811SOL    HW230228   3.119   4.823   4.940
 8812SOL     OW30229   3.164   4.579   4.033
 8812SOL    HW130230   3.078   4.548   4.075
 8812SOL    HW230231   3.160   4.565   3.934
 8813SOL     OW30232   3.621   5.471   4.878
 8813SOL    HW130233   3.682   5.501   4.805
 8813SOL    HW230234   3.583   5.382   4.856
 8814SOL     OW30235   3.114   5.455   4.852
 8814SOL    HW130236   3.198   5.460   4.798
 8814SOL    HW230237   3.091   5.359   4.870
 8815SOL     OW30238   1.945   4.982   4.746
 8815SOL    HW130239   1.940   4.981   4.846
 8815SOL    HW230240   1.862   4.941   4.708
 8816SOL     OW30241   2.550   5.386   5.440
 8816SOL    HW130242   2.494   5.467   5.449
 8816SOL    HW230243   2.602   5.390   5.354
 8817SOL     OW30244   3.588   3.859   4.247
 8817SOL    HW130245   3.661   3.842   4.180
 8817SOL    HW230246   3.557   3.772   4.285
 8818SOL     OW30247   3.250   5.297   4.201
 8818SOL    HW130248   3.317   5.309   4.127
 8818SOL    HW230249   3.210   5.386   4.224
 8819SOL     OW30250   1.992   5.518   5.575
 8819SOL    HW130251   1.951   5.444   5.628
 8819SOL    HW230252   2.056   5.569   5.633
 8820SOL     OW30253   3.142   4.651   4.396
 8820SOL    HW130254   3.202   4.570   4.398
 8820SOL    HW230255   3.182   4.720   4.336
 8821SOL     OW30256   2.692   4.997   5.146
 8821SOL    HW130257   2.687   5.030   5.241
 8821SOL    HW230258   2.606   5.016   5.100
 8822SOL     OW30259   2.534   5.340   3.878
 8822SOL    HW130260   2.543   5.350   3.779
 8822SOL    HW230261   2.494   5.251   3.899
 8823SOL     OW30262   3.512   5.444   5.118
 8823SOL    HW130263   3.565   5.454   5.034
 8823SOL    HW230264   3.485   5.534   5.152
 8824SOL     OW30265   3.703   3.899   4.687
 8824SOL    HW130266   3.742   3.814   4.651
 8824SOL    HW230267   3.605   3.901   4.668
 8825SOL     OW30268   2.125   4.050   4.444
 8825SOL    HW130269   2.046   4.101   4.410
 8825SOL    HW230270   2.116   4.035   4.542
 8826SOL     OW30271   3.056   5.336   3.755
 8826SOL    HW130272   3.062   5.243   3.792
 8826SOL    HW230273   2.997   5.336   3.675
 8827SOL     OW30274   2.684   4.726   5.096
 8827SOL    HW130275   2.724   4.725   5.004
 8827SOL    HW230276   2.694   4.818   5.136
 8828SOL     OW30277   2.778   4.634   4.015
 8828SOL    HW130278   2.841   4.672   3.947
 8828SOL    HW230279   2.818   4.551   4.054
 8829SOL     OW30280   3.366   5.331   3.768
 8829SOL    HW130281   3.274   5.368   3.775
 8829SOL    HW230282   3.404   5.351   3.678
 8830SOL     OW30283   2.234   5.012   5.214
 8830SOL    HW130284   2.221   5.105   5.180
 8830SOL    HW230285   2.150   4.960   5.201
 8831SOL     OW30286   3.476   5.016   5.013
 8831SOL    HW130287   3.536   5.019   5.093
 8831SOL    HW230288   3.401   5.080   5.026
 8832SOL     OW30289   2.901   4.822   4.420
 8832SOL    HW130290   2.831   4.775   4.474
 8832SOL    HW230291   2.960   4.754   4.377
 8833SOL     OW30292   2.876   3.960   4.695
 8833SOL    HW130293   2.868   3.924   4.602
 8833SOL    HW230294   2.874   3.884   4.760
 8834SOL     OW30295   2.452   5.211   4.215
 8834SOL    HW130296   2.494   5.153   4.145
 8834SOL    HW230297   2.408   5.290   4.171
 8835SOL     OW30298   3.571   4.109   5.105
 8835SOL    HW130299   3.644   4.178   5.109
 8835SOL    HW230300   3.599   4.034   5.046
 8836SOL     OW30301   2.534   3.927   5.213
 8836SOL    HW130302   2.624   3.911   5.173
 8836SOL    HW230303   2.542   3.932   5.312
 8837SOL     OW30304   1.937   4.069   3.757
 8837SOL    HW130305   1.845   4.041   3.728
 8837SOL    HW230306   1.968   4.146   3.701
 8838SOL     OW30307   3.302   4.580   5.122
 8838SOL    HW130308   3.245   4.632   5.059
 8838SOL    HW230309   3.398   4.592   5.098
 8839SOL     OW30310   1.934   3.890   4.042
 8839SOL    HW130311   1.917   3.973   3.988
 8839SOL    HW230312   2.024   3.853   4.020
 8840SOL     OW30313   3.045   5.059   3.843
 8840SOL    HW130314   2.946   5.048   3.845
 8840SOL    HW230315   3.079   5.074   3.936
 8841SOL     OW30316   2.475   4.566   5.155
 8841SOL    HW130317   2.531   4.647   5.138
 8841SOL    HW230318   2.534   4.486   5.158
 8842SOL     OW30319   3.355   5.491   4.683
 8842SOL    HW130320   3.388   5.555   4.614
 8842SOL    HW230321   3.421   5.485   4.758
 8843SOL     OW30322   2.578   4.289   5.432
 8843SOL    HW130323   2.597   4.354   5.506
 8843SOL    HW230324   2.638   4.209   5.441
 8844SOL     OW30325   3.312   4.944   5.357
 8844SOL    HW130326   3.303   4.934   5.456
 8844SOL    HW230327   3.408   4.937   5.331
 8845SOL     OW30328   2.252   5.465   5.284
 8845SOL    HW130329   2.161   5.506   5.282
 8845SOL    HW230330   2.245   5.371   5.316
 8846SOL     OW30331   3.536   4.607   4.978
 8846SOL    HW130332   3.509   4.518   4.941
 8846SOL    HW230333   3.537   4.675   4.905
 8847SOL     OW30334   3.087   4.049   4.173
 8847SOL    HW130335   3.152   3.975   4.162
 8847SOL    HW230336   3.107   4.099   4.257
 8848SOL     OW30337   2.456   4.469   4.376
 8848SOL    HW130338   2.506   4.554   4.357
 8848SOL    HW230339   2.368   4.471   4.328
 8849SOL     OW30340   3.639   4.066   5.366
 8849SOL    HW130341   3.622   4.097   5.272
 8849SOL    HW230342   3.555   4.029   5.404
 8850SOL     OW30343   3.592   4.658   5.241
 8850SOL    HW130344   3.630   4.749   5.256
 8850SOL    HW230345   3.584   4.641   5.142
 8851SOL     OW30346   2.721   5.098   3.740
 8851SOL    HW130347   2.675   5.113   3.828
 8851SOL    HW230348   2.765   5.183   3.710
 8852SOL     OW30349   2.523   5.514   4.677
 8852SOL    HW130350   2.477   5.602   4.664
 8852SOL    HW230351   2.622   5.526   4.670
 8853SOL     OW30352   2.721   4.680   4.585
 8853SOL    HW130353   2.775   4.611   4.633
 8853SOL    HW230354   2.689   4.749   4.651
 8854SOL     OW30355   2.945   4.708   3.811
 8854SOL    HW130356   2.922   4.761   3.729
 8854SOL    HW230357   3.026   4.652   3.792
 8855SOL     OW30358   3.723   5.293   4.575
 8855SOL    HW130359   3.652   5.281   4.505
 8855SOL    HW230360   3.724   5.214   4.635
 8856SOL     OW30361   2.083   5.038   5.568
 8856SOL    HW130362   2.018   4.965   5.547
 8856SOL    HW230363   2.087   5.052   5.666
 8857SOL     OW30364   1.941   4.964   4.377
 8857SOL    HW130365   1.940   4.917   4.465
 8857SOL    HW230366   2.023   4.936   4.326
 8858SOL     OW30367   2.534   5.115   5.348
 8858SOL    HW130368   2.456   5.065   5.386
 8858SOL    HW230369   2.531   5.210   5.379
 8859SOL     OW30370   3.686   3.916   4.951
 8859SOL    HW130371   3.682   3.826   4.995
 8859SOL    HW230372   3.689   3.905   4.852
 8860SOL     OW30373   2.290   4.148   4.244
 8860SOL    HW130374   2.320   4.076   4.182
 8860SOL    HW230375   2.251   4.108   4.327
 8861SOL     OW30376   3.567   5.211   4.828
 8861SOL    HW130377   3.474   5.186   4.801
 8861SOL    HW230378   3.593   5.161   4.910
 8862SOL     OW30379   2.179   4.271   5.004
 8862SOL    HW130380   2.217   4.212   5.076
 8862SOL    HW230381   2.219   4.245   4.916
 8863SOL     OW30382   2.674   5.310   4.411
 8863SOL    HW130383   2.706   5.320   4.317
 8863SOL    HW230384   2.595   5.248   4.413
 8864SOL     OW30385   3.286   3.938   4.836
 8864SOL    HW130386   3.338   3.873   4.891
 8864SOL    HW230387   3.237   4.001   4.897
 8865SOL     OW30388   2.863   3.758   4.878
 8865SOL    HW130389   2.800   3.686   4.847
 8865SOL    HW230390   2.956   3.722   4.878
 8866SOL     OW30391   2.632   5.054   4.025
 8866SOL    HW130392   2.586   4.967   4.042
 8866SOL    HW230393   2.723   5.051   4.066
 8867SOL     OW30394   2.480   5.291   5.008
 8867SOL    HW130395   2.475   5.373   5.065
 8867SOL    HW230396   2.569   5.288   4.963
 8868SOL     OW30397   3.214   3.776   3.892
 8868SOL    HW130398   3.249   3.735   3.808
 8868SOL    HW230399   3.124   3.738   3.912
 8869SOL     OW30400   3.162   4.177   4.415
 8869SOL    HW130401   3.103   4.257   4.419
 8869SOL    HW230402   3.177   4.142   4.508
 8870SOL     OW30403   3.455   3.945   4.606
 8870SOL    HW130404   3.371   3.944   4.660
 8870SOL    HW230405   3.457   4.028   4.550
 8871SOL     OW30406   1.901   4.801   4.024
 8871SOL    HW130407   2.000   4.790   4.015
 8871SOL    HW230408   1.861   4.715   4.056
 8872SOL     OW30409   2.737   5.370   4.061
 8872SOL    HW130410   2.660   5.335   4.007
 8872SOL    HW230411   2.705   5.441   4.123
 8873SOL     OW30412   2.092   4.352   5.699
 8873SOL    HW130413   1.999   4.350   5.736
 8873SOL    HW230414   2.093   4.313   5.607
 8874SOL     OW30415   2.087   3.999   6.582
 8874SOL    HW130416   2.122   3.982   6.674
 8874SOL    HW230417   1.999   3.954   6.570
 8875SOL     OW30418   1.881   4.092   6.233
 8875SOL    HW130419   1.799   4.135   6.272
 8875SOL    HW230420   1.853   4.019   6.170
 8876SOL     OW30421   2.431   4.999   6.751
 8876SOL    HW130422   2.338   4.992   6.714
 8876SOL    HW230423   2.442   5.088   6.795
 8877SOL     OW30424   3.417   5.235   6.289
 8877SOL    HW130425   3.360   5.219   6.370
 8877SOL    HW230426   3.358   5.245   6.209
 8878SOL     OW30427   2.997   4.427   6.303
 8878SOL    HW130428   3.054   4.505   6.278
 8878SOL    HW230429   2.937   4.453   6.379
 8879SOL     OW30430   3.617   4.331   5.817
 8879SOL    HW130431   3.605   4.318   5.718
 8879SOL    HW230432   3.587   4.250   5.866
 8880SOL     OW30433   2.630   4.868   6.609
 8880SOL    HW130434   2.552   4.885   6.669
 8880SOL    HW230435   2.664   4.955   6.573
 8881SOL     OW30436   2.712   4.522   7.409
 8881SOL    HW130437   2.708   4.598   7.474
 8881SOL    HW230438   2.734   4.558   7.318
 8882SOL     OW30439   2.547   4.736   6.251
 8882SOL    HW130440   2.616   4.720   6.321
 8882SOL    HW230441   2.474   4.793   6.289
 8883SOL     OW30442   2.548   4.885   7.389
 8883SOL    HW130443   2.608   4.964   7.403
 8883SOL    HW230444   2.462   4.916   7.348
 8884SOL     OW30445   2.197   5.159   6.647
 8884SOL    HW130446   2.119   5.128   6.594
 8884SOL    HW230447   2.255   5.217   6.590
 8885SOL     OW30448   3.322   5.229   6.925
 8885SOL    HW130449   3.346   5.323   6.951
 8885SOL    HW230450   3.306   5.175   7.007
 8886SOL     OW30451   2.300   4.116   7.085
 8886SOL    HW130452   2.382   4.060   7.094
 8886SOL    HW230453   2.219   4.058   7.089
 8887SOL     OW30454   3.465   4.171   6.323
 8887SOL    HW130455   3.391   4.217   6.273
 8887SOL    HW230456   3.516   4.239   6.376
 8888SOL     OW30457   2.093   5.437   6.069
 8888SOL    HW130458   2.127   5.514   6.123
 8888SOL    HW230459   2.137   5.437   5.979
 8889SOL     OW30460   2.989   5.065   7.276
 8889SOL    HW130461   3.036   5.065   7.364
 8889SOL    HW230462   2.941   4.978   7.265
 8890SOL     OW30463   2.092   5.158   6.124
 8890SOL    HW130464   2.066   5.254   6.124
 8890SOL    HW230465   2.021   5.104   6.169
 8891SOL     OW30466   2.102   4.815   6.472
 8891SOL    HW130467   2.116   4.731   6.524
 8891SOL    HW230468   2.047   4.879   6.527
 8892SOL     OW30469   2.482   5.510   7.025
 8892SOL    HW130470   2.390   5.493   7.060
 8892SOL    HW230471   2.510   5.602   7.051
 8893SOL     OW30472   2.468   4.688   5.709
 8893SOL    HW130473   2.475   4.772   5.655
 8893SOL    HW230474   2.514   4.701   5.797
 8894SOL     OW30475   3.456   3.838   7.066
 8894SOL    HW130476   3.438   3.905   6.994
 8894SOL    HW230477   3.453   3.884   7.155
 8895SOL     OW30478   1.984   4.367   6.149
 8895SOL    HW130479   1.939   4.279   6.166
 8895SOL    HW230480   1.983   4.421   6.233
 8896SOL     OW30481   3.704   5.491   5.945
 8896SOL    HW130482   3.758   5.462   6.025
 8896SOL    HW230483   3.734   5.581   5.916
 8897SOL     OW30484   1.889   5.320   5.703
 8897SOL    HW130485   1.870   5.224   5.724
 8897SOL    HW230486   1.856   5.378   5.778
 8898SOL     OW30487   3.551   4.646   6.198
 8898SOL    HW130488   3.646   4.617   6.206
 8898SOL    HW230489   3.543   4.711   6.123
 8899SOL     OW30490   3.503   4.832   6.018
 8899SOL    HW130491   3.589   4.834   5.966
 8899SOL    HW230492   3.517   4.879   6.106
 8900SOL     OW30493   1.975   4.461   7.183
 8900SOL    HW130494   2.063   4.448   7.228
 8900SOL    HW230495   1.962   4.558   7.161
 8901SOL     OW30496   2.475   5.089   6.312
 8901SOL    HW130497   2.426   5.002   6.321
 8901SOL    HW230498   2.452   5.132   6.225
 8902SOL     OW30499   3.155   4.952   7.009
 8902SOL    HW130500   3.192   4.879   6.951
 8902SOL    HW230501   3.207   4.957   7.094
 8903SOL     OW30502   2.671   3.728   6.088
 8903SOL    HW130503   2.711   3.819   6.079
 8903SOL    HW230504   2.571   3.736   6.094
 8904SOL     OW30505   2.059   4.700   6.850
 8904SOL    HW130506   2.148   4.655   6.836
 8904SOL    HW230507   1.986   4.635   6.831
 8905SOL     OW30508   3.387   4.723   5.776
 8905SOL    HW130509   3.324   4.647   5.789
 8905SOL    HW230510   3.435   4.741   5.862
 8906SOL     OW30511   3.049   5.516   7.202
 8906SOL    HW130512   3.073   5.576   7.126
 8906SOL    HW230513   3.056   5.421   7.172
 8907SOL     OW30514   2.179   3.975   7.387
 8907SOL    HW130515   2.250   4.046   7.393
 8907SOL    HW230516   2.091   4.014   7.415
 8908SOL     OW30517   3.328   5.141   6.539
 8908SOL    HW130518   3.269   5.147   6.619
 8908SOL    HW230519   3.313   5.053   6.493
 8909SOL     OW30520   3.529   5.438   6.158
 8909SOL    HW130521   3.488   5.415   6.070
 8909SOL    HW230522   3.511   5.364   6.223
 8910SOL     OW30523   2.460   4.453   5.856
 8910SOL    HW130524   2.484   4.522   5.788
 8910SOL    HW230525   2.382   4.486   5.910
 8911SOL     OW30526   3.143   4.069   6.530
 8911SOL    HW130527   3.057   4.019   6.517
 8911SOL    HW230528   3.205   4.015   6.586
 8912SOL     OW30529   3.438   5.386   5.893
 8912SOL    HW130530   3.527   5.432   5.896
 8912SOL    HW230531   3.417   5.362   5.798
 8913SOL     OW30532   2.669   4.329   7.051
 8913SOL    HW130533   2.622   4.326   7.140
 8913SOL    HW230534   2.618   4.274   6.985
 8914SOL     OW30535   3.256   4.193   7.260
 8914SOL    HW130536   3.236   4.236   7.348
 8914SOL    HW230537   3.334   4.131   7.269
 8915SOL     OW30538   2.835   4.614   7.158
 8915SOL    HW130539   2.881   4.530   7.129
 8915SOL    HW230540   2.779   4.648   7.083
 8916SOL     OW30541   2.853   4.134   6.828
 8916SOL    HW130542   2.776   4.168   6.882
 8916SOL    HW230543   2.819   4.083   6.749
 8917SOL     OW30544   2.903   4.425   6.015
 8917SOL    HW130545   2.929   4.421   6.111
 8917SOL    HW230546   2.818   4.374   6.001
 8918SOL     OW30547   1.938   4.535   6.375
 8918SOL    HW130548   2.037   4.523   6.384
 8918SOL    HW230549   1.914   4.630   6.396
 8919SOL     OW30550   1.992   5.545   7.157
 8919SOL    HW130551   1.982   5.530   7.256
 8919SOL    HW230552   1.906   5.581   7.121
 8920SOL     OW30553   2.727   4.072   5.781
 8920SOL    HW130554   2.786   4.135   5.732
 8920SOL    HW230555   2.746   3.978   5.752
 8921SOL     OW30556   3.581   4.309   7.417
 8921SOL    HW130557   3.555   4.398   7.381
 8921SOL    HW230558   3.579   4.241   7.344
 8922SOL     OW30559   3.224   4.868   6.131
 8922SOL    HW130560   3.307   4.839   6.083
 8922SOL    HW230561   3.175   4.935   6.075
 8923SOL     OW30562   2.870   5.180   6.063
 8923SOL    HW130563   2.824   5.252   6.011
 8923SOL    HW230564   2.866   5.200   6.161
 8924SOL     OW30565   2.213   5.525   6.439
 8924SOL    HW130566   2.263   5.439   6.445
 8924SOL    HW230567   2.278   5.602   6.436
 8925SOL     OW30568   3.657   4.790   6.459
 8925SOL    HW130569   3.595   4.775   6.383
 8925SOL    HW230570   3.605   4.801   6.544
 8926SOL     OW30571   3.089   5.274   7.092
 8926SOL    HW130572   3.095   5.197   7.156
 8926SOL    HW230573   3.037   5.248   7.012
 8927SOL     OW30574   2.183   4.667   5.828
 8927SOL    HW130575   2.265   4.706   5.786
 8927SOL    HW230576   2.156   4.585   5.779
 8928SOL     OW30577   3.320   4.459   6.314
 8928SOL    HW130578   3.315   4.394   6.389
 8928SOL    HW230579   3.400   4.518   6.327
 8929SOL     OW30580   2.323   4.990   7.313
 8929SOL    HW130581   2.273   4.991   7.227
 8929SOL    HW230582   2.260   4.972   7.389
 8930SOL     OW30583   2.973   5.500   5.823
 8930SOL    HW130584   2.913   5.438   5.873
 8930SOL    HW230585   3.004   5.456   5.738
 8931SOL     OW30586   2.064   4.009   7.084
 8931SOL    HW130587   1.984   4.069   7.071
 8931SOL    HW230588   2.054   3.960   7.170
 8932SOL     OW30589   3.494   5.101   5.667
 8932SOL    HW130590   3.462   5.195   5.657
 8932SOL    HW230591   3.418   5.038   5.655
 8933SOL     OW30592   2.326   5.467   5.909
 8933SOL    HW130593   2.359   5.506   5.995
 8933SOL    HW230594   2.402   5.460   5.844
 8934SOL     OW30595   3.262   3.831   6.012
 8934SOL    HW130596   3.238   3.794   5.922
 8934SOL    HW230597   3.361   3.847   6.016
 8935SOL     OW30598   2.111   5.509   6.827
 8935SOL    HW130599   2.168   5.444   6.877
 8935SOL    HW230600   2.095   5.476   6.734
 8936SOL     OW30601   2.802   5.422   6.490
 8936SOL    HW130602   2.882   5.365   6.511
 8936SOL    HW230603   2.753   5.382   6.413
 8937SOL     OW30604   2.244   4.424   6.066
 8937SOL    HW130605   2.289   4.334   6.063
 8937SOL    HW230606   2.150   4.413   6.099
 8938SOL     OW30607   3.409   3.946   7.315
 8938SOL    HW130608   3.404   3.983   7.407
 8938SOL    HW230609   3.337   3.877   7.303
 8939SOL     OW30610   2.476   3.846   5.703
 8939SOL    HW130611   2.574   3.824   5.710
 8939SOL    HW230612   2.445   3.829   5.610
 8940SOL     OW30613   2.643   3.988   7.335
 8940SOL    HW130614   2.710   3.927   7.378
 8940SOL    HW230615   2.570   4.007   7.400
 8941SOL     OW30616   2.750   5.238   6.781
 8941SOL    HW130617   2.727   5.213   6.687
 8941SOL    HW230618   2.811   5.169   6.820
 8942SOL     OW30619   3.213   4.314   7.019
 8942SOL    HW130620   3.241   4.271   7.104
 8942SOL    HW230621   3.238   4.410   7.020
 8943SOL     OW30622   2.665   5.126   6.510
 8943SOL    HW130623   2.755   5.140   6.468
 8943SOL    HW230624   2.594   5.128   6.439
 8944SOL     OW30625   2.784   4.227   6.485
 8944SOL    HW130626   2.759   4.218   6.389
 8944SOL    HW230627   2.832   4.145   6.516
 8945SOL     OW30628   2.401   3.788   6.098
 8945SOL    HW130629   2.320   3.789   6.156
 8945SOL    HW230630   2.404   3.871   6.043
 8946SOL     OW30631   3.296   4.912   5.627
 8946SOL    HW130632   3.328   4.836   5.684
 8946SOL    HW230633   3.204   4.939   5.657
 8947SOL     OW30634   2.159   3.759   5.757
 8947SOL    HW130635   2.208   3.843   5.736
 8947SOL    HW230636   2.221   3.694   5.802
 8948SOL     OW30637   2.797   3.960   6.066
 8948SOL    HW130638   2.749   4.001   5.988
 8948SOL    HW230639   2.896   3.958   6.047
 8949SOL     OW30640   2.938   4.407   7.050
 8949SOL    HW130641   2.858   4.346   7.053
 8949SOL    HW230642   3.019   4.354   7.026
 8950SOL     OW30643   3.089   5.294   6.379
 8950SOL    HW130644   3.110   5.368   6.314
 8950SOL    HW230645   3.157   5.294   6.452
 8951SOL     OW30646   2.321   4.876   6.327
 8951SOL    HW130647   2.250   4.849   6.392
 8951SOL    HW230648   2.295   4.848   6.234
 8952SOL     OW30649   3.133   5.521   6.177
 8952SOL    HW130650   3.177   5.585   6.113
 8952SOL    HW230651   3.083   5.573   6.247
 8953SOL     OW30652   2.894   4.273   5.602
 8953SOL    HW130653   2.853   4.355   5.563
 8953SOL    HW230654   2.958   4.299   5.675
 8954SOL     OW30655   1.940   4.280   6.972
 8954SOL    HW130656   2.032   4.279   6.931
 8954SOL    HW230657   1.934   4.354   7.039
 8955SOL     OW30658   2.423   3.946   6.733
 8955SOL    HW130659   2.461   3.862   6.770
 8955SOL    HW230660   2.335   3.965   6.777
 8956SOL     OW30661   2.728   4.178   6.228
 8956SOL    HW130662   2.696   4.250   6.166
 8956SOL    HW230663   2.752   4.097   6.175
 8957SOL     OW30664   2.879   3.763   6.339
 8957SOL    HW130665   2.807   3.768   6.270
 8957SOL    HW230666   2.855   3.694   6.408
 8958SOL     OW30667   3.291   4.897   6.453
 8958SOL    HW130668   3.236   4.813   6.446
 8958SOL    HW230669   3.317   4.926   6.361
 8959SOL     OW30670   3.328   4.314   6.578
 8959SOL    HW130671   3.298   4.219   6.585
 8959SOL    HW230672   3.401   4.330   6.644
 8960SOL     OW30673   3.719   4.557   5.963
 8960SOL    HW130674   3.761   4.493   6.027
 8960SOL    HW230675   3.681   4.506   5.885
 8961SOL     OW30676   2.350   5.109   5.760
 8961SOL    HW130677   2.263   5.094   5.807
 8961SOL    HW230678   2.333   5.135   5.665
 8962SOL     OW30679   3.526   5.004   6.243
 8962SOL    HW130680   3.625   5.012   6.257
 8962SOL    HW230681   3.481   5.088   6.274
 8963SOL     OW30682   3.252   4.299   5.664
 8963SOL    HW130683   3.198   4.278   5.745
 8963SOL    HW230684   3.343   4.258   5.673
 8964SOL     OW30685   2.389   3.980   5.914
 8964SOL    HW130686   2.416   3.921   5.839
 8964SOL    HW230687   2.389   4.075   5.883
 8965SOL     OW30688   3.616   4.947   7.174
 8965SOL    HW130689   3.707   4.908   7.161
 8965SOL    HW230690   3.624   5.043   7.198
 8966SOL     OW30691   2.926   5.071   6.926
 8966SOL    HW130692   2.846   5.048   6.981
 8966SOL    HW230693   3.009   5.045   6.975
 8967SOL     OW30694   3.454   5.353   7.211
 8967SOL    HW130695   3.481   5.387   7.121
 8967SOL    HW230696   3.533   5.315   7.257
 8968SOL     OW30697   2.973   4.919   6.686
 8968SOL    HW130698   2.933   4.963   6.767
 8968SOL    HW230699   2.932   4.956   6.603
 8969SOL     OW30700   3.500   4.823   6.665
 8969SOL    HW130701   3.505   4.904   6.724
 8969SOL    HW230702   3.414   4.825   6.614
 8970SOL     OW30703   2.777   3.813   6.988
 8970SOL    HW130704   2.802   3.793   6.893
 8970SOL    HW230705   2.849   3.869   7.030
 8971SOL     OW30706   2.842   4.840   7.305
 8971SOL    HW130707   2.743   4.846   7.315
 8971SOL    HW230708   2.865   4.760   7.249
 8972SOL     OW30709   2.567   4.774   5.954
 8972SOL    HW130710   2.553   4.781   6.053
 8972SOL    HW230711   2.651   4.723   5.936
 8973SOL     OW30712   2.272   4.537   6.837
 8973SOL    HW130713   2.358   4.549   6.887
 8973SOL    HW230714   2.230   4.450   6.864
 8974SOL     OW30715   3.136   4.110   6.848
 8974SOL    HW130716   3.157   4.184   6.912
 8974SOL    HW230717   3.047   4.127   6.805
 8975SOL     OW30718   1.926   5.288   6.917
 8975SOL    HW130719   1.880   5.370   6.883
 8975SOL    HW230720   2.024   5.307   6.926
 8976SOL     OW30721   2.229   4.824   6.087
 8976SOL    HW130722   2.222   4.907   6.031
 8976SOL    HW230723   2.233   4.744   6.027
 8977SOL     OW30724   3.114   5.072   5.974
 8977SOL    HW130725   3.164   5.149   6.014
 8977SOL    HW230726   3.019   5.074   6.006
 8978SOL     OW30727   3.134   5.169   6.728
 8978SOL    HW130728   3.181   5.182   6.815
 8978SOL    HW230729   3.068   5.095   6.737
 8979SOL     OW30730   3.444   4.363   6.058
 8979SOL    HW130731   3.413   4.424   6.131
 8979SOL    HW230732   3.494   4.415   5.989
 8980SOL     OW30733   2.216   5.234   6.915
 8980SOL    HW130734   2.195   5.190   6.828
 8980SOL    HW230735   2.313   5.260   6.918
 8981SOL     OW30736   2.264   4.475   7.184
 8981SOL    HW130737   2.332   4.530   7.137
 8981SOL    HW230738   2.304   4.387   7.211
 8982SOL     OW30739   3.449   4.503   7.256
 8982SOL    HW130740   3.357   4.541   7.251
 8982SOL    HW230741   3.509   4.550   7.191
 8983SOL     OW30742   2.875   3.829   7.356
 8983SOL    HW130743   2.881   3.914   7.304
 8983SOL    HW230744   2.907   3.753   7.299
 8984SOL     OW30745   2.366   3.774   7.326
 8984SOL    HW130746   2.324   3.717   7.256
 8984SOL    HW230747   2.300   3.843   7.358
 8985SOL     OW30748   3.222   4.586   6.631
 8985SOL    HW130749   3.147   4.586   6.565
 8985SOL    HW230750   3.259   4.494   6.640
 8986SOL     OW30751   3.071   4.249   5.861
 8986SOL    HW130752   3.084   4.165   5.915
 8986SOL    HW230753   3.042   4.323   5.921
 8987SOL     OW30754   2.169   3.937   6.817
 8987SOL    HW130755   2.146   3.974   6.907
 8987SOL    HW230756   2.139   3.842   6.811
 8988SOL     OW30757   1.899   5.034   6.868
 8988SOL    HW130758   1.952   4.985   6.936
 8988SOL    HW230759   1.921   5.132   6.873
 8989SOL     OW30760   3.590   4.659   7.440
 8989SOL    HW130761   3.544   4.652   7.351
 8989SOL    HW230762   3.528   4.703   7.506
 8990SOL     OW30763   2.169   3.787   6.204
 8990SOL    HW130764   2.158   3.881   6.237
 8990SOL    HW230765   2.164   3.724   6.281
 8991SOL     OW30766   3.484   4.091   5.960
 8991SOL    HW130767   3.486   4.015   6.024
 8991SOL    HW230768   3.436   4.168   6.000
 8992SOL     OW30769   2.885   4.490   6.552
 8992SOL    HW130770   2.900   4.511   6.648
 8992SOL    HW230771   2.855   4.395   6.543
 8993SOL     OW30772   2.842   5.297   7.286
 8993SOL    HW130773   2.822   5.341   7.198
 8993SOL    HW230774   2.881   5.206   7.270
 8994SOL     OW30775   3.721   5.242   7.191
 8994SOL    HW130776   3.735   5.269   7.096
 8994SOL    HW230777   3.804   5.264   7.244
 8995SOL     OW30778   2.212   4.622   7.390
 8995SOL    HW130779   2.288   4.666   7.438
 8995SOL    HW230780   2.247   4.575   7.308
 8996SOL     OW30781   3.402   3.998   5.711
 8996SOL    HW130782   3.341   3.923   5.734
 8996SOL    HW230783   3.424   4.050   5.794
 8997SOL     OW30784   3.165   4.562   5.628
 8997SOL    HW130785   3.199   4.469   5.643
 8997SOL    HW230786   3.183   4.589   5.533
 8998SOL     OW30787   2.930   5.057   6.435
 8998SOL    HW130788   2.937   4.973   6.380
 8998SOL    HW230789   2.992   5.126   6.399
 8999SOL     OW30790   2.181   4.534   6.535
 8999SOL    HW130791   2.274   4.570   6.540
 8999SOL    HW230792   2.175   4.449   6.587
 9000SOL     OW30793   3.000   4.104   7.264
 9000SOL    HW130794   2.955   4.167   7.328
 9000SOL    HW230795   3.093   4.135   7.247
 9001SOL     OW30796   3.022   3.931   7.063
 9001SOL    HW130797   3.022   3.995   7.140
 9001SOL    HW230798   3.050   3.979   6.980
 9002SOL     OW30799   1.870   5.050   5.786
 9002SOL    HW130800   1.777   5.071   5.755
 9002SOL    HW230801   1.880   4.951   5.799
 9003SOL     OW30802   1.950   5.525   6.513
 9003SOL    HW130803   1.908   5.439   6.486
 9003SOL    HW230804   2.044   5.528   6.479
 9004SOL     OW30805   2.366   5.292   6.496
 9004SOL    HW130806   2.432   5.366   6.505
 9004SOL    HW230807   2.410   5.213   6.454
 9005SOL     OW30808   2.864   4.520   6.824
 9005SOL    HW130809   2.905   4.488   6.910
 9005SOL    HW230810   2.768   4.493   6.821
 9006SOL     OW30811   1.902   4.268   6.700
 9006SOL    HW130812   1.987   4.235   6.659
 9006SOL    HW230813   1.915   4.283   6.798
 9007SOL     OW30814   2.051   4.244   7.308
 9007SOL    HW130815   2.110   4.204   7.238
 9007SOL    HW230816   1.993   4.315   7.267
 9008SOL     OW30817   3.231   4.674   7.246
 9008SOL    HW130818   3.270   4.763   7.266
 9008SOL    HW230819   3.241   4.654   7.149
 9009SOL     OW30820   2.677   4.296   5.911
 9009SOL    HW130821   2.684   4.207   5.865
 9009SOL    HW230822   2.583   4.330   5.903
 9010SOL     OW30823   3.519   4.328   6.792
 9010SOL    HW130824   3.481   4.259   6.854
 9010SOL    HW230825   3.601   4.292   6.748
 9011SOL     OW30826   2.114   5.288   7.330
 9011SOL    HW130827   2.084   5.345   7.406
 9011SOL    HW230828   2.107   5.191   7.356
 9012SOL     OW30829   2.792   5.402   7.051
 9012SOL    HW130830   2.768   5.384   6.956
 9012SOL    HW230831   2.822   5.496   7.061
 9013SOL     OW30832   2.335   4.224   5.777
 9013SOL    HW130833   2.396   4.304   5.781
 9013SOL    HW230834   2.240   4.255   5.784
 9014SOL     OW30835   2.021   4.861   7.052
 9014SOL    HW130836   2.043   4.800   7.128
 9014SOL    HW230837   2.031   4.812   6.966
 9015SOL     OW30838   3.209   4.783   6.820
 9015SOL    HW130839   3.233   4.720   6.746
 9015SOL    HW230840   3.119   4.823   6.802
 9016SOL     OW30841   3.164   4.579   5.895
 9016SOL    HW130842   3.078   4.548   5.937
 9016SOL    HW230843   3.160   4.565   5.796
 9017SOL     OW30844   3.621   5.471   6.740
 9017SOL    HW130845   3.682   5.501   6.667
 9017SOL    HW230846   3.583   5.382   6.718
 9018SOL     OW30847   3.114   5.455   6.714
 9018SOL    HW130848   3.198   5.460   6.660
 9018SOL    HW230849   3.091   5.359   6.732
 9019SOL     OW30850   1.945   4.982   6.608
 9019SOL    HW130851   1.940   4.981   6.708
 9019SOL    HW230852   1.862   4.941   6.570
 9020SOL     OW30853   2.550   5.386   7.302
 9020SOL    HW130854   2.494   5.467   7.311
 9020SOL    HW230855   2.602   5.390   7.216
 9021SOL     OW30856   3.588   3.859   6.109
 9021SOL    HW130857   3.661   3.842   6.042
 9021SOL    HW230858   3.557   3.772   6.147
 9022SOL     OW30859   3.250   5.297   6.063
 9022SOL    HW130860   3.317   5.309   5.989
 9022SOL    HW230861   3.210   5.386   6.086
 9023SOL     OW30862   1.992   5.518   7.437
 9023SOL    HW130863   1.951   5.444   7.490
 9023SOL    HW230864   2.056   5.569   7.495
 9024SOL     OW30865   3.142   4.651   6.258
 9024SOL    HW130866   3.202   4.570   6.260
 9024SOL    HW230867   3.182   4.720   6.198
 9025SOL     OW30868   2.692   4.997   7.008
 9025SOL    HW130869   2.687   5.030   7.103
 9025SOL    HW230870   2.606   5.016   6.962
 9026SOL     OW30871   2.534   5.340   5.740
 9026SOL    HW130872   2.543   5.350   5.641
 9026SOL    HW230873   2.494   5.251   5.761
 9027SOL     OW30874   3.512   5.444   6.980
 9027SOL    HW130875   3.565   5.454   6.896
 9027SOL    HW230876   3.485   5.534   7.014
 9028SOL     OW30877   3.703   3.899   6.549
 9028SOL    HW130878   3.742   3.814   6.513
 9028SOL    HW230879   3.605   3.901   6.530
 9029SOL     OW30880   2.125   4.050   6.306
 9029SOL    HW130881   2.046   4.101   6.272
 9029SOL    HW230882   2.116   4.035   6.404
 9030SOL     OW30883   3.056   5.336   5.617
 9030SOL    HW130884   3.062   5.243   5.654
 9030SOL    HW230885   2.997   5.336   5.537
 9031SOL     OW30886   2.684   4.726   6.958
 9031SOL    HW130887   2.724   4.725   6.866
 9031SOL    HW230888   2.694   4.818   6.998
 9032SOL     OW30889   2.778   4.634   5.877
 9032SOL    HW130890   2.841   4.672   5.809
 9032SOL    HW230891   2.818   4.551   5.916
 9033SOL     OW30892   3.366   5.331   5.630
 9033SOL    HW130893   3.274   5.368   5.637
 9033SOL    HW230894   3.404   5.351   5.540
 9034SOL     OW30895   2.234   5.012   7.076
 9034SOL    HW130896   2.221   5.105   7.042
 9034SOL    HW230897   2.150   4.960   7.063
 9035SOL     OW30898   3.476   5.016   6.875
 9035SOL    HW130899   3.536   5.019   6.955
 9035SOL    HW230900   3.401   5.080   6.888
 9036SOL     OW30901   2.901   4.822   6.282
 9036SOL    HW130902   2.831   4.775   6.336
 9036SOL    HW230903   2.960   4.754   6.239
 9037SOL     OW30904   2.876   3.960   6.557
 9037SOL    HW130905   2.868   3.924   6.464
 9037SOL    HW230906   2.874   3.884   6.622
 9038SOL     OW30907   2.452   5.211   6.077
 9038SOL    HW130908   2.494   5.153   6.007
 9038SOL    HW230909   2.408   5.290   6.033
 9039SOL     OW30910   3.571   4.109   6.967
 9039SOL    HW130911   3.644   4.178   6.971
 9039SOL    HW230912   3.599   4.034   6.908
 9040SOL     OW30913   2.117   5.072   5.876
 9040SOL    HW130914   2.021   5.073   5.849
 9040SOL    HW230915   2.129   5.125   5.960
 9041SOL     OW30916   1.967   4.737   7.312
 9041SOL    HW130917   1.890   4.704   7.366
 9041SOL    HW230918   2.052   4.707   7.354
 9042SOL     OW30919   2.534   3.927   7.075
 9042SOL    HW130920   2.624   3.911   7.035
 9042SOL    HW230921   2.542   3.932   7.174
 9043SOL     OW30922   1.937   4.069   5.619
 9043SOL    HW130923   1.845   4.041   5.590
 9043SOL    HW230924   1.968   4.146   5.563
 9044SOL     OW30925   3.302   4.580   6.984
 9044SOL    HW130926   3.245   4.632   6.921
 9044SOL    HW230927   3.398   4.592   6.960
 9045SOL     OW30928   1.934   3.890   5.904
 9045SOL    HW130929   1.917   3.973   5.850
 9045SOL    HW230930   2.024   3.853   5.882
 9046SOL     OW30931   3.045   5.059   5.705
 9046SOL    HW130932   2.946   5.048   5.707
 9046SOL    HW230933   3.079   5.074   5.798
 9047SOL     OW30934   2.475   4.566   7.017
 9047SOL    HW130935   2.531   4.647   7.000
 9047SOL    HW230936   2.534   4.486   7.020
 9048SOL     OW30937   3.355   5.491   6.545
 9048SOL    HW130938   3.388   5.555   6.476
 9048SOL    HW230939   3.421   5.485   6.620
 9049SOL     OW30940   2.578   4.289   7.294
 9049SOL    HW130941   2.597   4.354   7.368
 9049SOL    HW230942   2.638   4.209   7.303
 9050SOL     OW30943   3.312   4.944   7.219
 9050SOL    HW130944   3.303   4.934   7.318
 9050SOL    HW230945   3.408   4.937   7.193
 9051SOL     OW30946   2.252   5.465   7.146
 9051SOL    HW130947   2.161   5.506   7.144
 9051SOL    HW230948   2.245   5.371   7.178
 9052SOL     OW30949   3.536   4.607   6.840
 9052SOL    HW130950   3.509   4.518   6.803
 9052SOL    HW230951   3.537   4.675   6.767
 9053SOL     OW30952   3.087   4.049   6.035
 9053SOL    HW130953   3.152   3.975   6.024
 9053SOL    HW230954   3.107   4.099   6.119
 9054SOL     OW30955   2.456   4.469   6.238
 9054SOL    HW130956   2.506   4.554   6.219
 9054SOL    HW230957   2.368   4.471   6.190
 9055SOL     OW30958   3.639   4.066   7.228
 9055SOL    HW130959   3.622   4.097   7.134
 9055SOL    HW230960   3.555   4.029   7.266
 9056SOL     OW30961   3.592   4.658   7.103
 9056SOL    HW130962   3.630   4.749   7.118
 9056SOL    HW230963   3.584   4.641   7.004
 9057SOL     OW30964   2.721   5.098   5.602
 9057SOL    HW130965   2.675   5.113   5.690
 9057SOL    HW230966   2.765   5.183   5.572
 9058SOL     OW30967   2.523   5.514   6.539
 9058SOL    HW130968   2.477   5.602   6.526
 9058SOL    HW230969   2.622   5.526   6.532
 9059SOL     OW30970   2.721   4.680   6.447
 9059SOL    HW130971   2.775   4.611   6.495
 9059SOL    HW230972   2.689   4.749   6.513
 9060SOL     OW30973   2.945   4.708   5.673
 9060SOL    HW130974   2.922   4.761   5.591
 9060SOL    HW230975   3.026   4.652   5.654
 9061SOL     OW30976   3.723   5.293   6.437
 9061SOL    HW130977   3.652   5.281   6.367
 9061SOL    HW230978   3.724   5.214   6.497
 9062SOL     OW30979   1.941   4.964   6.239
 9062SOL    HW130980   1.940   4.917   6.327
 9062SOL    HW230981   2.023   4.936   6.188
 9063SOL     OW30982   2.534   5.115   7.210
 9063SOL    HW130983   2.456   5.065   7.248
 9063SOL    HW230984   2.531   5.210   7.241
 9064SOL     OW30985   3.686   3.916   6.813
 9064SOL    HW130986   3.682   3.826   6.857
 9064SOL    HW230987   3.689   3.905   6.714
 9065SOL     OW30988   2.290   4.148   6.106
 9065SOL    HW130989   2.320   4.076   6.044
 9065SOL    HW230990   2.251   4.108   6.189
 9066SOL     OW30991   3.567   5.211   6.690
 9066SOL    HW130992   3.474   5.186   6.663
 9066SOL    HW230993   3.593   5.161   6.772
 9067SOL     OW30994   2.179   4.271   6.866
 9067SOL    HW130995   2.217   4.212   6.938
 9067SOL    HW230996   2.219   4.245   6.778
 9068SOL     OW30997   2.674   5.310   6.273
 9068SOL    HW130998   2.706   5.320   6.179
 9068SOL    HW230999   2.595   5.248   6.275
 9069SOL     OW31000   3.286   3.938   6.698
 9069SOL    HW131001   3.338   3.873   6.753
 9069SOL    HW231002   3.237   4.001   6.759
 9070SOL     OW31003   2.863   3.758   6.740
 9070SOL    HW131004   2.800   3.686   6.709
 9070SOL    HW231005   2.956   3.722   6.740
 9071SOL     OW31006   2.632   5.054   5.887
 9071SOL    HW131007   2.586   4.967   5.904
 9071SOL    HW231008   2.723   5.051   5.928
 9072SOL     OW31009   2.480   5.291   6.870
 9072SOL    HW131010   2.475   5.373   6.927
 9072SOL    HW231011   2.569   5.288   6.825
 9073SOL     OW31012   3.214   3.776   5.754
 9073SOL    HW131013   3.249   3.735   5.670
 9073SOL    HW231014   3.124   3.738   5.774
 9074SOL     OW31015   3.162   4.177   6.277
 9074SOL    HW131016   3.103   4.257   6.281
 9074SOL    HW231017   3.177   4.142   6.370
 9075SOL     OW31018   3.455   3.945   6.468
 9075SOL    HW131019   3.371   3.944   6.522
 9075SOL    HW231020   3.457   4.028   6.412
 9076SOL     OW31021   1.901   4.801   5.886
 9076SOL    HW131022   2.000   4.790   5.877
 9076SOL    HW231023   1.861   4.715   5.918
 9077SOL     OW31024   2.737   5.370   5.923
 9077SOL    HW131025   2.660   5.335   5.869
 9077SOL    HW231026   2.705   5.441   5.985
 9078SOL     OW31027   2.092   4.352   7.561
 9078SOL    HW131028   1.999   4.350   7.598
 9078SOL    HW231029   2.093   4.313   7.469
 9079SOL     OW31030   2.087   3.999   8.444
 9079SOL    HW131031   2.122   3.982   8.536
 9079SOL    HW231032   1.999   3.954   8.432
 9080SOL     OW31033   1.881   4.092   8.095
 9080SOL    HW131034   1.799   4.135   8.134
 9080SOL    HW231035   1.853   4.019   8.032
 9081SOL     OW31036   2.431   4.999   8.613
 9081SOL    HW131037   2.338   4.992   8.576
 9081SOL    HW231038   2.442   5.088   8.657
 9082SOL     OW31039   3.417   5.235   8.151
 9082SOL    HW131040   3.360   5.219   8.232
 9082SOL    HW231041   3.358   5.245   8.071
 9083SOL     OW31042   2.997   4.427   8.165
 9083SOL    HW131043   3.054   4.505   8.140
 9083SOL    HW231044   2.937   4.453   8.241
 9084SOL     OW31045   3.617   4.331   7.679
 9084SOL    HW131046   3.605   4.318   7.580
 9084SOL    HW231047   3.587   4.250   7.728
 9085SOL     OW31048   2.630   4.868   8.471
 9085SOL    HW131049   2.552   4.885   8.531
 9085SOL    HW231050   2.664   4.955   8.435
 9086SOL     OW31051   2.712   4.522   9.271
 9086SOL    HW131052   2.708   4.598   9.336
 9086SOL    HW231053   2.734   4.558   9.180
 9087SOL     OW31054   2.547   4.736   8.113
 9087SOL    HW131055   2.616   4.720   8.183
 9087SOL    HW231056   2.474   4.793   8.151
 9088SOL     OW31057   2.548   4.885   9.251
 9088SOL    HW131058   2.608   4.964   9.265
 9088SOL    HW231059   2.462   4.916   9.210
 9089SOL     OW31060   2.197   5.159   8.509
 9089SOL    HW131061   2.119   5.128   8.456
 9089SOL    HW231062   2.255   5.217   8.452
 9090SOL     OW31063   3.322   5.229   8.787
 9090SOL    HW131064   3.346   5.323   8.813
 9090SOL    HW231065   3.306   5.175   8.869
 9091SOL     OW31066   2.300   4.116   8.947
 9091SOL    HW131067   2.382   4.060   8.956
 9091SOL    HW231068   2.219   4.058   8.951
 9092SOL     OW31069   3.465   4.171   8.185
 9092SOL    HW131070   3.391   4.217   8.135
 9092SOL    HW231071   3.516   4.239   8.238
 9093SOL     OW31072   2.093   5.437   7.931
 9093SOL    HW131073   2.127   5.514   7.985
 9093SOL    HW231074   2.137   5.437   7.841
 9094SOL     OW31075   2.989   5.065   9.138
 9094SOL    HW131076   3.036   5.065   9.226
 9094SOL    HW231077   2.941   4.978   9.127
 9095SOL     OW31078   2.092   5.158   7.986
 9095SOL    HW131079   2.066   5.254   7.986
 9095SOL    HW231080   2.021   5.104   8.031
 9096SOL     OW31081   2.102   4.815   8.334
 9096SOL    HW131082   2.116   4.731   8.386
 9096SOL    HW231083   2.047   4.879   8.389
 9097SOL     OW31084   2.482   5.510   8.887
 9097SOL    HW131085   2.390   5.493   8.922
 9097SOL    HW231086   2.510   5.602   8.913
 9098SOL     OW31087   2.468   4.688   7.571
 9098SOL    HW131088   2.475   4.772   7.517
 9098SOL    HW231089   2.514   4.701   7.659
 9099SOL     OW31090   3.456   3.838   8.928
 9099SOL    HW131091   3.438   3.905   8.856
 9099SOL    HW231092   3.453   3.884   9.017
 9100SOL     OW31093   1.984   4.367   8.011
 9100SOL    HW131094   1.939   4.279   8.028
 9100SOL    HW231095   1.983   4.421   8.095
 9101SOL     OW31096   3.704   5.491   7.807
 9101SOL    HW131097   3.758   5.462   7.887
 9101SOL    HW231098   3.734   5.581   7.778
 9102SOL     OW31099   3.551   4.646   8.060
 9102SOL    HW131100   3.646   4.617   8.068
 9102SOL    HW231101   3.543   4.711   7.985
 9103SOL     OW31102   3.503   4.832   7.880
 9103SOL    HW131103   3.589   4.834   7.828
 9103SOL    HW231104   3.517   4.879   7.968
 9104SOL     OW31105   1.975   4.461   9.045
 9104SOL    HW131106   2.063   4.448   9.090
 9104SOL    HW231107   1.962   4.558   9.023
 9105SOL     OW31108   2.475   5.089   8.174
 9105SOL    HW131109   2.426   5.002   8.183
 9105SOL    HW231110   2.452   5.132   8.087
 9106SOL     OW31111   3.155   4.952   8.871
 9106SOL    HW131112   3.192   4.879   8.813
 9106SOL    HW231113   3.207   4.957   8.956
 9107SOL     OW31114   2.671   3.728   7.950
 9107SOL    HW131115   2.711   3.819   7.941
 9107SOL    HW231116   2.571   3.736   7.956
 9108SOL     OW31117   2.059   4.700   8.712
 9108SOL    HW131118   2.148   4.655   8.698
 9108SOL    HW231119   1.986   4.635   8.693
 9109SOL     OW31120   3.387   4.723   7.638
 9109SOL    HW131121   3.324   4.647   7.651
 9109SOL    HW231122   3.435   4.741   7.724
 9110SOL     OW31123   3.049   5.516   9.064
 9110SOL    HW131124   3.073   5.576   8.988
 9110SOL    HW231125   3.056   5.421   9.034
 9111SOL     OW31126   2.179   3.975   9.249
 9111SOL    HW131127   2.250   4.046   9.255
 9111SOL    HW231128   2.091   4.014   9.277
 9112SOL     OW31129   3.328   5.141   8.401
 9112SOL    HW131130   3.269   5.147   8.481
 9112SOL    HW231131   3.313   5.053   8.355
 9113SOL     OW31132   3.529   5.438   8.020
 9113SOL    HW131133   3.488   5.415   7.932
 9113SOL    HW231134   3.511   5.364   8.085
 9114SOL     OW31135   2.460   4.453   7.718
 9114SOL    HW131136   2.484   4.522   7.650
 9114SOL    HW231137   2.382   4.486   7.772
 9115SOL     OW31138   3.143   4.069   8.392
 9115SOL    HW131139   3.057   4.019   8.379
 9115SOL    HW231140   3.205   4.015   8.448
 9116SOL     OW31141   3.438   5.386   7.755
 9116SOL    HW131142   3.527   5.432   7.758
 9116SOL    HW231143   3.417   5.362   7.660
 9117SOL     OW31144   2.669   4.329   8.913
 9117SOL    HW131145   2.622   4.326   9.002
 9117SOL    HW231146   2.618   4.274   8.847
 9118SOL     OW31147   3.256   4.193   9.122
 9118SOL    HW131148   3.236   4.236   9.210
 9118SOL    HW231149   3.334   4.131   9.131
 9119SOL     OW31150   2.835   4.614   9.020
 9119SOL    HW131151   2.881   4.530   8.991
 9119SOL    HW231152   2.779   4.648   8.945
 9120SOL     OW31153   2.853   4.134   8.690
 9120SOL    HW131154   2.776   4.168   8.744
 9120SOL    HW231155   2.819   4.083   8.611
 9121SOL     OW31156   2.903   4.425   7.877
 9121SOL    HW131157   2.929   4.421   7.973
 9121SOL    HW231158   2.818   4.374   7.863
 9122SOL     OW31159   1.938   4.535   8.237
 9122SOL    HW131160   2.037   4.523   8.246
 9122SOL    HW231161   1.914   4.630   8.258
 9123SOL     OW31162   1.992   5.545   9.019
 9123SOL    HW131163   1.982   5.530   9.118
 9123SOL    HW231164   1.906   5.581   8.983
 9124SOL     OW31165   2.727   4.072   7.643
 9124SOL    HW131166   2.786   4.135   7.594
 9124SOL    HW231167   2.746   3.978   7.614
 9125SOL     OW31168   3.581   4.309   9.279
 9125SOL    HW131169   3.555   4.398   9.243
 9125SOL    HW231170   3.579   4.241   9.206
 9126SOL     OW31171   3.224   4.868   7.993
 9126SOL    HW131172   3.307   4.839   7.945
 9126SOL    HW231173   3.175   4.935   7.937
 9127SOL     OW31174   2.412   3.920   8.333
 9127SOL    HW131175   2.407   3.915   8.433
 9127SOL    HW231176   2.414   4.016   8.304
 9128SOL     OW31177   2.870   5.180   7.925
 9128SOL    HW131178   2.824   5.252   7.873
 9128SOL    HW231179   2.866   5.200   8.023
 9129SOL     OW31180   2.213   5.525   8.301
 9129SOL    HW131181   2.263   5.439   8.307
 9129SOL    HW231182   2.278   5.602   8.298
 9130SOL     OW31183   3.657   4.790   8.321
 9130SOL    HW131184   3.595   4.775   8.245
 9130SOL    HW231185   3.605   4.801   8.406
 9131SOL     OW31186   3.089   5.274   8.954
 9131SOL    HW131187   3.095   5.197   9.018
 9131SOL    HW231188   3.037   5.248   8.874
 9132SOL     OW31189   2.183   4.667   7.690
 9132SOL    HW131190   2.265   4.706   7.648
 9132SOL    HW231191   2.156   4.585   7.641
 9133SOL     OW31192   3.320   4.459   8.176
 9133SOL    HW131193   3.315   4.394   8.251
 9133SOL    HW231194   3.400   4.518   8.189
 9134SOL     OW31195   2.323   4.990   9.175
 9134SOL    HW131196   2.273   4.991   9.089
 9134SOL    HW231197   2.260   4.972   9.251
 9135SOL     OW31198   2.973   5.500   7.685
 9135SOL    HW131199   2.913   5.438   7.735
 9135SOL    HW231200   3.004   5.456   7.600
 9136SOL     OW31201   2.064   4.009   8.946
 9136SOL    HW131202   1.984   4.069   8.933
 9136SOL    HW231203   2.054   3.960   9.032
 9137SOL     OW31204   3.494   5.101   7.529
 9137SOL    HW131205   3.462   5.195   7.519
 9137SOL    HW231206   3.418   5.038   7.517
 9138SOL     OW31207   2.326   5.467   7.771
 9138SOL    HW131208   2.359   5.506   7.857
 9138SOL    HW231209   2.402   5.460   7.706
 9139SOL     OW31210   3.262   3.831   7.874
 9139SOL    HW131211   3.238   3.794   7.784
 9139SOL    HW231212   3.361   3.847   7.878
 9140SOL     OW31213   2.111   5.509   8.689
 9140SOL    HW131214   2.168   5.444   8.739
 9140SOL    HW231215   2.095   5.476   8.596
 9141SOL     OW31216   2.802   5.422   8.352
 9141SOL    HW131217   2.882   5.365   8.373
 9141SOL    HW231218   2.753   5.382   8.275
 9142SOL     OW31219   2.244   4.424   7.928
 9142SOL    HW131220   2.289   4.334   7.925
 9142SOL    HW231221   2.150   4.413   7.961
 9143SOL     OW31222   3.409   3.946   9.177
 9143SOL    HW131223   3.404   3.983   9.269
 9143SOL    HW231224   3.337   3.877   9.165
 9144SOL     OW31225   2.476   3.846   7.565
 9144SOL    HW131226   2.574   3.824   7.572
 9144SOL    HW231227   2.445   3.829   7.472
 9145SOL     OW31228   2.643   3.988   9.197
 9145SOL    HW131229   2.710   3.927   9.240
 9145SOL    HW231230   2.570   4.007   9.262
 9146SOL     OW31231   2.750   5.238   8.643
 9146SOL    HW131232   2.727   5.213   8.549
 9146SOL    HW231233   2.811   5.169   8.682
 9147SOL     OW31234   3.213   4.314   8.881
 9147SOL    HW131235   3.241   4.271   8.966
 9147SOL    HW231236   3.238   4.410   8.882
 9148SOL     OW31237   2.665   5.126   8.372
 9148SOL    HW131238   2.755   5.140   8.330
 9148SOL    HW231239   2.594   5.128   8.301
 9149SOL     OW31240   2.784   4.227   8.347
 9149SOL    HW131241   2.759   4.218   8.251
 9149SOL    HW231242   2.832   4.145   8.378
 9150SOL     OW31243   2.401   3.788   7.960
 9150SOL    HW131244   2.320   3.789   8.018
 9150SOL    HW231245   2.404   3.871   7.905
 9151SOL     OW31246   3.296   4.912   7.489
 9151SOL    HW131247   3.328   4.836   7.546
 9151SOL    HW231248   3.204   4.939   7.519
 9152SOL     OW31249   2.159   3.759   7.619
 9152SOL    HW131250   2.208   3.843   7.598
 9152SOL    HW231251   2.221   3.694   7.664
 9153SOL     OW31252   2.797   3.960   7.928
 9153SOL    HW131253   2.749   4.001   7.850
 9153SOL    HW231254   2.896   3.958   7.909
 9154SOL     OW31255   2.938   4.407   8.912
 9154SOL    HW131256   2.858   4.346   8.915
 9154SOL    HW231257   3.019   4.354   8.888
 9155SOL     OW31258   3.089   5.294   8.241
 9155SOL    HW131259   3.110   5.368   8.176
 9155SOL    HW231260   3.157   5.294   8.314
 9156SOL     OW31261   2.321   4.876   8.189
 9156SOL    HW131262   2.250   4.849   8.254
 9156SOL    HW231263   2.295   4.848   8.096
 9157SOL     OW31264   3.133   5.521   8.039
 9157SOL    HW131265   3.177   5.585   7.975
 9157SOL    HW231266   3.083   5.573   8.109
 9158SOL     OW31267   2.894   4.273   7.464
 9158SOL    HW131268   2.853   4.355   7.425
 9158SOL    HW231269   2.958   4.299   7.537
 9159SOL     OW31270   1.940   4.280   8.834
 9159SOL    HW131271   2.032   4.279   8.793
 9159SOL    HW231272   1.934   4.354   8.901
 9160SOL     OW31273   2.423   3.946   8.595
 9160SOL    HW131274   2.461   3.862   8.632
 9160SOL    HW231275   2.335   3.965   8.639
 9161SOL     OW31276   2.728   4.178   8.090
 9161SOL    HW131277   2.696   4.250   8.028
 9161SOL    HW231278   2.752   4.097   8.037
 9162SOL     OW31279   2.879   3.763   8.201
 9162SOL    HW131280   2.807   3.768   8.132
 9162SOL    HW231281   2.855   3.694   8.270
 9163SOL     OW31282   3.291   4.897   8.315
 9163SOL    HW131283   3.236   4.813   8.308
 9163SOL    HW231284   3.317   4.926   8.223
 9164SOL     OW31285   3.328   4.314   8.440
 9164SOL    HW131286   3.298   4.219   8.447
 9164SOL    HW231287   3.401   4.330   8.506
 9165SOL     OW31288   3.719   4.557   7.825
 9165SOL    HW131289   3.761   4.493   7.889
 9165SOL    HW231290   3.681   4.506   7.747
 9166SOL     OW31291   2.350   5.109   7.622
 9166SOL    HW131292   2.263   5.094   7.669
 9166SOL    HW231293   2.333   5.135   7.527
 9167SOL     OW31294   3.526   5.004   8.105
 9167SOL    HW131295   3.625   5.012   8.119
 9167SOL    HW231296   3.481   5.088   8.136
 9168SOL     OW31297   3.252   4.299   7.526
 9168SOL    HW131298   3.198   4.278   7.607
 9168SOL    HW231299   3.343   4.258   7.535
 9169SOL     OW31300   2.389   3.980   7.776
 9169SOL    HW131301   2.416   3.921   7.701
 9169SOL    HW231302   2.389   4.075   7.745
 9170SOL     OW31303   3.616   4.947   9.036
 9170SOL    HW131304   3.707   4.908   9.023
 9170SOL    HW231305   3.624   5.043   9.060
 9171SOL     OW31306   2.926   5.071   8.788
 9171SOL    HW131307   2.846   5.048   8.843
 9171SOL    HW231308   3.009   5.045   8.837
 9172SOL     OW31309   3.454   5.353   9.073
 9172SOL    HW131310   3.481   5.387   8.983
 9172SOL    HW231311   3.533   5.315   9.119
 9173SOL     OW31312   2.973   4.919   8.548
 9173SOL    HW131313   2.933   4.963   8.629
 9173SOL    HW231314   2.932   4.956   8.465
 9174SOL     OW31315   3.500   4.823   8.527
 9174SOL    HW131316   3.505   4.904   8.586
 9174SOL    HW231317   3.414   4.825   8.476
 9175SOL     OW31318   2.777   3.813   8.850
 9175SOL    HW131319   2.802   3.793   8.755
 9175SOL    HW231320   2.849   3.869   8.892
 9176SOL     OW31321   2.842   4.840   9.167
 9176SOL    HW131322   2.743   4.846   9.177
 9176SOL    HW231323   2.865   4.760   9.111
 9177SOL     OW31324   2.567   4.774   7.816
 9177SOL    HW131325   2.553   4.781   7.915
 9177SOL    HW231326   2.651   4.723   7.798
 9178SOL     OW31327   2.272   4.537   8.699
 9178SOL    HW131328   2.358   4.549   8.749
 9178SOL    HW231329   2.230   4.450   8.726
 9179SOL     OW31330   3.136   4.110   8.710
 9179SOL    HW131331   3.157   4.184   8.774
 9179SOL    HW231332   3.047   4.127   8.667
 9180SOL     OW31333   1.926   5.288   8.779
 9180SOL    HW131334   1.880   5.370   8.745
 9180SOL    HW231335   2.024   5.307   8.788
 9181SOL     OW31336   2.229   4.824   7.949
 9181SOL    HW131337   2.222   4.907   7.893
 9181SOL    HW231338   2.233   4.744   7.889
 9182SOL     OW31339   2.428   4.261   8.313
 9182SOL    HW131340   2.440   4.327   8.239
 9182SOL    HW231341   2.474   4.295   8.396
 9183SOL     OW31342   3.114   5.072   7.836
 9183SOL    HW131343   3.164   5.149   7.876
 9183SOL    HW231344   3.019   5.074   7.868
 9184SOL     OW31345   3.134   5.169   8.590
 9184SOL    HW131346   3.181   5.182   8.677
 9184SOL    HW231347   3.068   5.095   8.599
 9185SOL     OW31348   3.444   4.363   7.920
 9185SOL    HW131349   3.413   4.424   7.993
 9185SOL    HW231350   3.494   4.415   7.851
 9186SOL     OW31351   2.216   5.234   8.777
 9186SOL    HW131352   2.195   5.190   8.690
 9186SOL    HW231353   2.313   5.260   8.780
 9187SOL     OW31354   2.264   4.475   9.046
 9187SOL    HW131355   2.332   4.530   8.999
 9187SOL    HW231356   2.304   4.387   9.073
 9188SOL     OW31357   3.449   4.503   9.118
 9188SOL    HW131358   3.357   4.541   9.113
 9188SOL    HW231359   3.509   4.550   9.053
 9189SOL     OW31360   2.875   3.829   9.218
 9189SOL    HW131361   2.881   3.914   9.166
 9189SOL    HW231362   2.907   3.753   9.161
 9190SOL     OW31363   2.366   3.774   9.188
 9190SOL    HW131364   2.324   3.717   9.118
 9190SOL    HW231365   2.300   3.843   9.220
 9191SOL     OW31366   2.435   4.594   8.477
 9191SOL    HW131367   2.479   4.683   8.468
 9191SOL    HW231368   2.372   4.594   8.554
 9192SOL     OW31369   3.222   4.586   8.493
 9192SOL    HW131370   3.147   4.586   8.427
 9192SOL    HW231371   3.259   4.494   8.502
 9193SOL     OW31372   3.071   4.249   7.723
 9193SOL    HW131373   3.084   4.165   7.777
 9193SOL    HW231374   3.042   4.323   7.783
 9194SOL     OW31375   2.169   3.937   8.679
 9194SOL    HW131376   2.146   3.974   8.769
 9194SOL    HW231377   2.139   3.842   8.673
 9195SOL     OW31378   1.899   5.034   8.730
 9195SOL    HW131379   1.952   4.985   8.798
 9195SOL    HW231380   1.921   5.132   8.735
 9196SOL     OW31381   2.594   4.358   8.512
 9196SOL    HW131382   2.653   4.332   8.436
 9196SOL    HW231383   2.566   4.454   8.501
 9197SOL     OW31384   3.590   4.659   9.302
 9197SOL    HW131385   3.544   4.652   9.213
 9197SOL    HW231386   3.528   4.703   9.368
 9198SOL     OW31387   2.169   3.787   8.066
 9198SOL    HW131388   2.158   3.881   8.099
 9198SOL    HW231389   2.164   3.724   8.143
 9199SOL     OW31390   3.484   4.091   7.822
 9199SOL    HW131391   3.486   4.015   7.886
 9199SOL    HW231392   3.436   4.168   7.862
 9200SOL     OW31393   2.885   4.490   8.414
 9200SOL    HW131394   2.900   4.511   8.510
 9200SOL    HW231395   2.855   4.395   8.405
 9201SOL     OW31396   2.842   5.297   9.148
 9201SOL    HW131397   2.822   5.341   9.060
 9201SOL    HW231398   2.881   5.206   9.132
 9202SOL     OW31399   3.721   5.242   9.053
 9202SOL    HW131400   3.735   5.269   8.958
 9202SOL    HW231401   3.804   5.264   9.106
 9203SOL     OW31402   2.212   4.622   9.252
 9203SOL    HW131403   2.288   4.666   9.300
 9203SOL    HW231404   2.247   4.575   9.170
 9204SOL     OW31405   3.402   3.998   7.573
 9204SOL    HW131406   3.341   3.923   7.596
 9204SOL    HW231407   3.424   4.050   7.656
 9205SOL     OW31408   3.165   4.562   7.490
 9205SOL    HW131409   3.199   4.469   7.505
 9205SOL    HW231410   3.183   4.589   7.395
 9206SOL     OW31411   2.930   5.057   8.297
 9206SOL    HW131412   2.937   4.973   8.242
 9206SOL    HW231413   2.992   5.126   8.261
 9207SOL     OW31414   2.181   4.534   8.397
 9207SOL    HW131415   2.274   4.570   8.402
 9207SOL    HW231416   2.175   4.449   8.449
 9208SOL     OW31417   2.201   4.233   8.454
 9208SOL    HW131418   2.149   4.150   8.437
 9208SOL    HW231419   2.278   4.238   8.390
 9209SOL     OW31420   3.000   4.104   9.126
 9209SOL    HW131421   2.955   4.167   9.190
 9209SOL    HW231422   3.093   4.135   9.109
 9210SOL     OW31423   3.022   3.931   8.925
 9210SOL    HW131424   3.022   3.995   9.002
 9210SOL    HW231425   3.050   3.979   8.842
 9211SOL     OW31426   1.950   5.525   8.375
 9211SOL    HW131427   1.908   5.439   8.348
 9211SOL    HW231428   2.044   5.528   8.341
 9212SOL     OW31429   2.366   5.292   8.358
 9212SOL    HW131430   2.432   5.366   8.367
 9212SOL    HW231431   2.410   5.213   8.316
 9213SOL     OW31432   2.864   4.520   8.686
 9213SOL    HW131433   2.905   4.488   8.772
 9213SOL    HW231434   2.768   4.493   8.683
 9214SOL     OW31435   1.902   4.268   8.562
 9214SOL    HW131436   1.987   4.235   8.521
 9214SOL    HW231437   1.915   4.283   8.660
 9215SOL     OW31438   2.051   4.244   9.170
 9215SOL    HW131439   2.110   4.204   9.100
 9215SOL    HW231440   1.993   4.315   9.129
 9216SOL     OW31441   3.231   4.674   9.108
 9216SOL    HW131442   3.270   4.763   9.128
 9216SOL    HW231443   3.241   4.654   9.011
 9217SOL     OW31444   2.677   4.296   7.773
 9217SOL    HW131445   2.684   4.207   7.727
 9217SOL    HW231446   2.583   4.330   7.765
 9218SOL     OW31447   3.519   4.328   8.654
 9218SOL    HW131448   3.481   4.259   8.716
 9218SOL    HW231449   3.601   4.292   8.610
 9219SOL     OW31450   2.114   5.288   9.192
 9219SOL    HW131451   2.084   5.345   9.268
 9219SOL    HW231452   2.107   5.191   9.218
 9220SOL     OW31453   2.533   4.188   8.717
 9220SOL    HW131454   2.499   4.099   8.687
 9220SOL    HW231455   2.559   4.242   8.637
 9221SOL     OW31456   2.792   5.402   8.913
 9221SOL    HW131457   2.768   5.384   8.818
 9221SOL    HW231458   2.822   5.496   8.923
 9222SOL     OW31459   2.335   4.224   7.639
 9222SOL    HW131460   2.396   4.304   7.643
 9222SOL    HW231461   2.240   4.255   7.646
 9223SOL     OW31462   2.021   4.861   8.914
 9223SOL    HW131463   2.043   4.800   8.990
 9223SOL    HW231464   2.031   4.812   8.828
 9224SOL     OW31465   3.209   4.783   8.682
 9224SOL    HW131466   3.233   4.720   8.608
 9224SOL    HW231467   3.119   4.823   8.664
 9225SOL     OW31468   3.164   4.579   7.757
 9225SOL    HW131469   3.078   4.548   7.799
 9225SOL    HW231470   3.160   4.565   7.658
 9226SOL     OW31471   3.621   5.471   8.602
 9226SOL    HW131472   3.682   5.501   8.529
 9226SOL    HW231473   3.583   5.382   8.580
 9227SOL     OW31474   3.114   5.455   8.576
 9227SOL    HW131475   3.198   5.460   8.522
 9227SOL    HW231476   3.091   5.359   8.594
 9228SOL     OW31477   1.945   4.982   8.470
 9228SOL    HW131478   1.940   4.981   8.570
 9228SOL    HW231479   1.862   4.941   8.432
 9229SOL     OW31480   2.550   5.386   9.164
 9229SOL    HW131481   2.494   5.467   9.173
 9229SOL    HW231482   2.602   5.390   9.078
 9230SOL     OW31483   3.588   3.859   7.971
 9230SOL    HW131484   3.661   3.842   7.904
 9230SOL    HW231485   3.557   3.772   8.009
 9231SOL     OW31486   3.250   5.297   7.925
 9231SOL    HW131487   3.317   5.309   7.851
 9231SOL    HW231488   3.210   5.386   7.948
 9232SOL     OW31489   1.992   5.518   9.299
 9232SOL    HW131490   1.951   5.444   9.352
 9232SOL    HW231491   2.056   5.569   9.357
 9233SOL     OW31492   3.142   4.651   8.120
 9233SOL    HW131493   3.202   4.570   8.122
 9233SOL    HW231494   3.182   4.720   8.060
 9234SOL     OW31495   2.692   4.997   8.870
 9234SOL    HW131496   2.687   5.030   8.965
 9234SOL    HW231497   2.606   5.016   8.824
 9235SOL     OW31498   2.534   5.340   7.602
 9235SOL    HW131499   2.543   5.350   7.503
 9235SOL    HW231500   2.494   5.251   7.623
 9236SOL     OW31501   3.512   5.444   8.842
 9236SOL    HW131502   3.565   5.454   8.758
 9236SOL    HW231503   3.485   5.534   8.876
 9237SOL     OW31504   3.703   3.899   8.411
 9237SOL    HW131505   3.742   3.814   8.375
 9237SOL    HW231506   3.605   3.901   8.392
 9238SOL     OW31507   2.125   4.050   8.168
 9238SOL    HW131508   2.046   4.101   8.134
 9238SOL    HW231509   2.116   4.035   8.266
 9239SOL     OW31510   3.056   5.336   7.479
 9239SOL    HW131511   3.062   5.243   7.516
 9239SOL    HW231512   2.997   5.336   7.399
 9240SOL     OW31513   2.684   4.726   8.820
 9240SOL    HW131514   2.724   4.725   8.728
 9240SOL    HW231515   2.694   4.818   8.860
 9241SOL     OW31516   2.778   4.634   7.739
 9241SOL    HW131517   2.841   4.672   7.671
 9241SOL    HW231518   2.818   4.551   7.778
 9242SOL     OW31519   3.366   5.331   7.492
 9242SOL    HW131520   3.274   5.368   7.499
 9242SOL    HW231521   3.404   5.351   7.402
 9243SOL     OW31522   2.234   5.012   8.938
 9243SOL    HW131523   2.221   5.105   8.904
 9243SOL    HW231524   2.150   4.960   8.925
 9244SOL     OW31525   3.476   5.016   8.737
 9244SOL    HW131526   3.536   5.019   8.817
 9244SOL    HW231527   3.401   5.080   8.750
 9245SOL     OW31528   2.901   4.822   8.144
 9245SOL    HW131529   2.831   4.775   8.198
 9245SOL    HW231530   2.960   4.754   8.101
 9246SOL     OW31531   2.876   3.960   8.419
 9246SOL    HW131532   2.868   3.924   8.326
 9246SOL    HW231533   2.874   3.884   8.484
 9247SOL     OW31534   2.452   5.211   7.939
 9247SOL    HW131535   2.494   5.153   7.869
 9247SOL    HW231536   2.408   5.290   7.895
 9248SOL     OW31537   3.571   4.109   8.829
 9248SOL    HW131538   3.644   4.178   8.833
 9248SOL    HW231539   3.599   4.034   8.770
 9249SOL     OW31540   2.117   5.072   7.738
 9249SOL    HW131541   2.021   5.073   7.711
 9249SOL    HW231542   2.129   5.125   7.822
 9250SOL     OW31543   1.967   4.737   9.174
 9250SOL    HW131544   1.890   4.704   9.228
 9250SOL    HW231545   2.052   4.707   9.216
 9251SOL     OW31546   2.534   3.927   8.937
 9251SOL    HW131547   2.624   3.911   8.897
 9251SOL    HW231548   2.542   3.932   9.036
 9252SOL     OW31549   1.937   4.069   7.481
 9252SOL    HW131550   1.845   4.041   7.452
 9252SOL    HW231551   1.968   4.146   7.425
 9253SOL     OW31552   3.302   4.580   8.846
 9253SOL    HW131553   3.245   4.632   8.783
 9253SOL    HW231554   3.398   4.592   8.822
 9254SOL     OW31555   1.934   3.890   7.766
 9254SOL    HW131556   1.917   3.973   7.712
 9254SOL    HW231557   2.024   3.853   7.744
 9255SOL     OW31558   3.045   5.059   7.567
 9255SOL    HW131559   2.946   5.048   7.569
 9255SOL    HW231560   3.079   5.074   7.660
 9256SOL     OW31561   2.475   4.566   8.879
 9256SOL    HW131562   2.531   4.647   8.862
 9256SOL    HW231563   2.534   4.486   8.882
 9257SOL     OW31564   3.355   5.491   8.407
 9257SOL    HW131565   3.388   5.555   8.338
 9257SOL    HW231566   3.421   5.485   8.482
 9258SOL     OW31567   2.578   4.289   9.156
 9258SOL    HW131568   2.597   4.354   9.230
 9258SOL    HW231569   2.638   4.209   9.165
 9259SOL     OW31570   3.312   4.944   9.081
 9259SOL    HW131571   3.303   4.934   9.180
 9259SOL    HW231572   3.408   4.937   9.055
 9260SOL     OW31573   2.252   5.465   9.008
 9260SOL    HW131574   2.161   5.506   9.006
 9260SOL    HW231575   2.245   5.371   9.040
 9261SOL     OW31576   3.536   4.607   8.702
 9261SOL    HW131577   3.509   4.518   8.665
 9261SOL    HW231578   3.537   4.675   8.629
 9262SOL     OW31579   3.087   4.049   7.897
 9262SOL    HW131580   3.152   3.975   7.886
 9262SOL    HW231581   3.107   4.099   7.981
 9263SOL     OW31582   2.456   4.469   8.100
 9263SOL    HW131583   2.506   4.554   8.081
 9263SOL    HW231584   2.368   4.471   8.052
 9264SOL     OW31585   3.639   4.066   9.090
 9264SOL    HW131586   3.622   4.097   8.996
 9264SOL    HW231587   3.555   4.029   9.128
 9265SOL     OW31588   3.592   4.658   8.965
 9265SOL    HW131589   3.630   4.749   8.980
 9265SOL    HW231590   3.584   4.641   8.866
 9266SOL     OW31591   2.721   5.098   7.464
 9266SOL    HW131592   2.675   5.113   7.552
 9266SOL    HW231593   2.765   5.183   7.434
 9267SOL     OW31594   2.523   5.514   8.401
 9267SOL    HW131595   2.477   5.602   8.388
 9267SOL    HW231596   2.622   5.526   8.394
 9268SOL     OW31597   2.721   4.680   8.309
 9268SOL    HW131598   2.775   4.611   8.357
 9268SOL    HW231599   2.689   4.749   8.375
 9269SOL     OW31600   2.945   4.708   7.535
 9269SOL    HW131601   2.922   4.761   7.453
 9269SOL    HW231602   3.026   4.652   7.516
 9270SOL     OW31603   3.723   5.293   8.299
 9270SOL    HW131604   3.652   5.281   8.229
 9270SOL    HW231605   3.724   5.214   8.359
 9271SOL     OW31606   2.083   5.038   9.292
 9271SOL    HW131607   2.018   4.965   9.271
 9271SOL    HW231608   2.087   5.052   9.390
 9272SOL     OW31609   1.941   4.964   8.101
 9272SOL    HW131610   1.940   4.917   8.189
 9272SOL    HW231611   2.023   4.936   8.050
 9273SOL     OW31612   2.534   5.115   9.072
 9273SOL    HW131613   2.456   5.065   9.110
 9273SOL    HW231614   2.531   5.210   9.103
 9274SOL     OW31615   3.686   3.916   8.675
 9274SOL    HW131616   3.682   3.826   8.719
 9274SOL    HW231617   3.689   3.905   8.576
 9275SOL     OW31618   2.290   4.148   7.968
 9275SOL    HW131619   2.320   4.076   7.906
 9275SOL    HW231620   2.251   4.108   8.051
 9276SOL     OW31621   3.567   5.211   8.552
 9276SOL    HW131622   3.474   5.186   8.525
 9276SOL    HW231623   3.593   5.161   8.634
 9277SOL     OW31624   2.179   4.271   8.728
 9277SOL    HW131625   2.217   4.212   8.800
 9277SOL    HW231626   2.219   4.245   8.640
 9278SOL     OW31627   2.674   5.310   8.135
 9278SOL    HW131628   2.706   5.320   8.041
 9278SOL    HW231629   2.595   5.248   8.137
 9279SOL     OW31630   3.286   3.938   8.560
 9279SOL    HW131631   3.338   3.873   8.615
 9279SOL    HW231632   3.237   4.001   8.621
 9280SOL     OW31633   2.863   3.758   8.602
 9280SOL    HW131634   2.800   3.686   8.571
 9280SOL    HW231635   2.956   3.722   8.602
 9281SOL     OW31636   2.632   5.054   7.749
 9281SOL    HW131637   2.586   4.967   7.766
 9281SOL    HW231638   2.723   5.051   7.790
 9282SOL     OW31639   2.480   5.291   8.732
 9282SOL    HW131640   2.475   5.373   8.789
 9282SOL    HW231641   2.569   5.288   8.687
 9283SOL     OW31642   3.214   3.776   7.616
 9283SOL    HW131643   3.249   3.735   7.532
 9283SOL    HW231644   3.124   3.738   7.636
 9284SOL     OW31645   3.162   4.177   8.139
 9284SOL    HW131646   3.103   4.257   8.143
 9284SOL    HW231647   3.177   4.142   8.232
 9285SOL     OW31648   3.455   3.945   8.330
 9285SOL    HW131649   3.371   3.944   8.384
 9285SOL    HW231650   3.457   4.028   8.274
 9286SOL     OW31651   1.901   4.801   7.748
 9286SOL    HW131652   2.000   4.790   7.739
 9286SOL    HW231653   1.861   4.715   7.780
 9287SOL     OW31654   2.737   5.370   7.785
 9287SOL    HW131655   2.660   5.335   7.731
 9287SOL    HW231656   2.705   5.441   7.847
 9288SOL     OW31657   2.092   4.352   9.423
 9288SOL    HW131658   1.999   4.350   9.460
 9288SOL    HW231659   2.093   4.313   9.331
 9289SOL     OW31660   3.617   4.331   9.541
 9289SOL    HW131661   3.605   4.318   9.442
 9289SOL    HW231662   3.587   4.250   9.590
 9290SOL     OW31663   2.093   5.437   9.793
 9290SOL    HW131664   2.127   5.514   9.847
 9290SOL    HW231665   2.137   5.437   9.703
 9291SOL     OW31666   2.092   5.158   9.848
 9291SOL    HW131667   2.066   5.254   9.848
 9291SOL    HW231668   2.021   5.104   9.893
 9292SOL     OW31669   2.468   4.688   9.433
 9292SOL    HW131670   2.475   4.772   9.379
 9292SOL    HW231671   2.514   4.701   9.521
 9293SOL     OW31672   1.984   4.367   9.873
 9293SOL    HW131673   1.939   4.279   9.890
 9293SOL    HW231674   1.983   4.421   9.957
 9294SOL     OW31675   3.704   5.491   9.669
 9294SOL    HW131676   3.758   5.462   9.749
 9294SOL    HW231677   3.734   5.581   9.640
 9295SOL     OW31678   1.889   5.320   9.427
 9295SOL    HW131679   1.870   5.224   9.448
 9295SOL    HW231680   1.856   5.378   9.502
 9296SOL     OW31681   3.551   4.646   9.922
 9296SOL    HW131682   3.646   4.617   9.930
 9296SOL    HW231683   3.543   4.711   9.847
 9297SOL     OW31684   3.503   4.832   9.742
 9297SOL    HW131685   3.589   4.834   9.690
 9297SOL    HW231686   3.517   4.879   9.830
 9298SOL     OW31687   2.671   3.728   9.812
 9298SOL    HW131688   2.711   3.819   9.803
 9298SOL    HW231689   2.571   3.736   9.818
 9299SOL     OW31690   3.387   4.723   9.500
 9299SOL    HW131691   3.324   4.647   9.513
 9299SOL    HW231692   3.435   4.741   9.586
 9300SOL     OW31693   2.460   4.453   9.580
 9300SOL    HW131694   2.484   4.522   9.512
 9300SOL    HW231695   2.382   4.486   9.634
 9301SOL     OW31696   3.438   5.386   9.617
 9301SOL    HW131697   3.527   5.432   9.620
 9301SOL    HW231698   3.417   5.362   9.522
 9302SOL     OW31699   2.903   4.425   9.739
 9302SOL    HW131700   2.929   4.421   9.835
 9302SOL    HW231701   2.818   4.374   9.725
 9303SOL     OW31702   1.938   4.535  10.099
 9303SOL    HW131703   2.037   4.523  10.108
 9303SOL    HW231704   1.914   4.630  10.120
 9304SOL     OW31705   2.727   4.072   9.505
 9304SOL    HW131706   2.786   4.135   9.456
 9304SOL    HW231707   2.746   3.978   9.476
 9305SOL     OW31708   3.224   4.868   9.855
 9305SOL    HW131709   3.307   4.839   9.807
 9305SOL    HW231710   3.175   4.935   9.799
 9306SOL     OW31711   2.870   5.180   9.787
 9306SOL    HW131712   2.824   5.252   9.735
 9306SOL    HW231713   2.866   5.200   9.885
 9307SOL     OW31714   2.213   5.525  10.163
 9307SOL    HW131715   2.263   5.439  10.169
 9307SOL    HW231716   2.278   5.602  10.160
 9308SOL     OW31717   2.183   4.667   9.552
 9308SOL    HW131718   2.265   4.706   9.510
 9308SOL    HW231719   2.156   4.585   9.503
 9309SOL     OW31720   3.494   5.101   9.391
 9309SOL    HW131721   3.462   5.195   9.381
 9309SOL    HW231722   3.418   5.038   9.379
 9310SOL     OW31723   2.326   5.467   9.633
 9310SOL    HW131724   2.359   5.506   9.719
 9310SOL    HW231725   2.402   5.460   9.568
 9311SOL     OW31726   3.262   3.831   9.736
 9311SOL    HW131727   3.238   3.794   9.646
 9311SOL    HW231728   3.361   3.847   9.740
 9312SOL     OW31729   2.244   4.424   9.790
 9312SOL    HW131730   2.289   4.334   9.787
 9312SOL    HW231731   2.150   4.413   9.823
 9313SOL     OW31732   2.476   3.846   9.427
 9313SOL    HW131733   2.574   3.824   9.434
 9313SOL    HW231734   2.445   3.829   9.334
 9314SOL     OW31735   2.401   3.788   9.822
 9314SOL    HW131736   2.320   3.789   9.880
 9314SOL    HW231737   2.404   3.871   9.767
 9315SOL     OW31738   3.296   4.912   9.351
 9315SOL    HW131739   3.328   4.836   9.408
 9315SOL    HW231740   3.204   4.939   9.381
 9316SOL     OW31741   2.159   3.759   9.481
 9316SOL    HW131742   2.208   3.843   9.460
 9316SOL    HW231743   2.221   3.694   9.526
 9317SOL     OW31744   2.797   3.960   9.790
 9317SOL    HW131745   2.749   4.001   9.712
 9317SOL    HW231746   2.896   3.958   9.771
 9318SOL     OW31747   2.894   4.273   9.326
 9318SOL    HW131748   2.853   4.355   9.287
 9318SOL    HW231749   2.958   4.299   9.399
 9319SOL     OW31750   2.728   4.178   9.952
 9319SOL    HW131751   2.696   4.250   9.890
 9319SOL    HW231752   2.752   4.097   9.899
 9320SOL     OW31753   3.719   4.557   9.687
 9320SOL    HW131754   3.761   4.493   9.751
 9320SOL    HW231755   3.681   4.506   9.609
 9321SOL     OW31756   2.350   5.109   9.484
 9321SOL    HW131757   2.263   5.094   9.531
 9321SOL    HW231758   2.333   5.135   9.389
 9322SOL     OW31759   3.252   4.299   9.388
 9322SOL    HW131760   3.198   4.278   9.469
 9322SOL    HW231761   3.343   4.258   9.397
 9323SOL     OW31762   2.389   3.980   9.638
 9323SOL    HW131763   2.416   3.921   9.563
 9323SOL    HW231764   2.389   4.075   9.607
 9324SOL     OW31765   2.567   4.774   9.678
 9324SOL    HW131766   2.553   4.781   9.777
 9324SOL    HW231767   2.651   4.723   9.660
 9325SOL     OW31768   2.229   4.824   9.811
 9325SOL    HW131769   2.222   4.907   9.755
 9325SOL    HW231770   2.233   4.744   9.751
 9326SOL     OW31771   3.114   5.072   9.698
 9326SOL    HW131772   3.164   5.149   9.738
 9326SOL    HW231773   3.019   5.074   9.730
 9327SOL     OW31774   3.444   4.363   9.782
 9327SOL    HW131775   3.413   4.424   9.855
 9327SOL    HW231776   3.494   4.415   9.713
 9328SOL     OW31777   3.071   4.249   9.585
 9328SOL    HW131778   3.084   4.165   9.639
 9328SOL    HW231779   3.042   4.323   9.645
 9329SOL     OW31780   2.169   3.787   9.928
 9329SOL    HW131781   2.158   3.881   9.961
 9329SOL    HW231782   2.164   3.724  10.005
 9330SOL     OW31783   3.484   4.091   9.684
 9330SOL    HW131784   3.486   4.015   9.748
 9330SOL    HW231785   3.436   4.168   9.724
 9331SOL     OW31786   3.402   3.998   9.435
 9331SOL    HW131787   3.341   3.923   9.458
 9331SOL    HW231788   3.424   4.050   9.518
 9332SOL     OW31789   3.165   4.562   9.352
 9332SOL    HW131790   3.199   4.469   9.367
 9332SOL    HW231791   3.183   4.589   9.257
 9333SOL     OW31792   1.870   5.050   9.510
 9333SOL    HW131793   1.777   5.071   9.479
 9333SOL    HW231794   1.880   4.951   9.523
 9334SOL     OW31795   2.677   4.296   9.635
 9334SOL    HW131796   2.684   4.207   9.589
 9334SOL    HW231797   2.583   4.330   9.627
 9335SOL     OW31798   2.335   4.224   9.501
 9335SOL    HW131799   2.396   4.304   9.505
 9335SOL    HW231800   2.240   4.255   9.508
 9336SOL     OW31801   3.164   4.579   9.619
 9336SOL    HW131802   3.078   4.548   9.661
 9336SOL    HW231803   3.160   4.565   9.520
 9337SOL     OW31804   3.588   3.859   9.833
 9337SOL    HW131805   3.661   3.842   9.766
 9337SOL    HW231806   3.557   3.772   9.871
 9338SOL     OW31807   3.250   5.297   9.787
 9338SOL    HW131808   3.317   5.309   9.713
 9338SOL    HW231809   3.210   5.386   9.810
 9339SOL     OW31810   2.534   5.340   9.464
 9339SOL    HW131811   2.543   5.350   9.365
 9339SOL    HW231812   2.494   5.251   9.485
 9340SOL     OW31813   3.056   5.336   9.341
 9340SOL    HW131814   3.062   5.243   9.378
 9340SOL    HW231815   2.997   5.336   9.261
 9341SOL     OW31816   2.778   4.634   9.601
 9341SOL    HW131817   2.841   4.672   9.533
 9341SOL    HW231818   2.818   4.551   9.640
 9342SOL     OW31819   3.366   5.331   9.354
 9342SOL    HW131820   3.274   5.368   9.361
 9342SOL    HW231821   3.404   5.351   9.264
 9343SOL     OW31822   2.452   5.211   9.801
 9343SOL    HW131823   2.494   5.153   9.731
 9343SOL    HW231824   2.408   5.290   9.757
 9344SOL     OW31825   2.117   5.072   9.600
 9344SOL    HW131826   2.021   5.073   9.573
 9344SOL    HW231827   2.129   5.125   9.684
 9345SOL     OW31828   1.937   4.069   9.343
 9345SOL    HW131829   1.845   4.041   9.314
 9345SOL    HW231830   1.968   4.146   9.287
 9346SOL     OW31831   1.934   3.890   9.628
 9346SOL    HW131832   1.917   3.973   9.574
 9346SOL    HW231833   2.024   3.853   9.606
 9347SOL     OW31834   3.045   5.059   9.429
 9347SOL    HW131835   2.946   5.048   9.431
 9347SOL    HW231836   3.079   5.074   9.522
 9348SOL     OW31837   3.087   4.049   9.759
 9348SOL    HW131838   3.152   3.975   9.748
 9348SOL    HW231839   3.107   4.099   9.843
 9349SOL     OW31840   2.721   5.098   9.326
 9349SOL    HW131841   2.675   5.113   9.414
 9349SOL    HW231842   2.765   5.183   9.296
 9350SOL     OW31843   2.945   4.708   9.397
 9350SOL    HW131844   2.922   4.761   9.315
 9350SOL    HW231845   3.026   4.652   9.378
 9351SOL     OW31846   1.941   4.964   9.963
 9351SOL    HW131847   1.940   4.917  10.051
 9351SOL    HW231848   2.023   4.936   9.912
 9352SOL     OW31849   2.290   4.148   9.830
 9352SOL    HW131850   2.320   4.076   9.768
 9352SOL    HW231851   2.251   4.108   9.913
 9353SOL     OW31852   2.632   5.054   9.611
 9353SOL    HW131853   2.586   4.967   9.628
 9353SOL    HW231854   2.723   5.051   9.652
 9354SOL     OW31855   3.214   3.776   9.478
 9354SOL    HW131856   3.249   3.735   9.394
 9354SOL    HW231857   3.124   3.738   9.498
 9355SOL     OW31858   1.901   4.801   9.610
 9355SOL    HW131859   2.000   4.790   9.601
 9355SOL    HW231860   1.861   4.715   9.642
 9356SOL     OW31861   2.737   5.370   9.647
 9356SOL    HW131862   2.660   5.335   9.593
 9356SOL    HW231863   2.705   5.441   9.709
 9357SOL     OW31864   2.092   6.214   0.113
 9357SOL    HW131865   1.999   6.212   0.150
 9357SOL    HW231866   2.093   6.175   0.021
 9358SOL     OW31867   2.087   5.861   0.996
 9358SOL    HW131868   2.122   5.844   1.088
 9358SOL    HW231869   1.999   5.816   0.984
 9359SOL     OW31870   1.881   5.954   0.647
 9359SOL    HW131871   1.799   5.997   0.686
 9359SOL    HW231872   1.853   5.881   0.584
 9360SOL     OW31873   2.431   6.861   1.165
 9360SOL    HW131874   2.338   6.854   1.128
 9360SOL    HW231875   2.442   6.950   1.209
 9361SOL     OW31876   3.417   7.097   0.703
 9361SOL    HW131877   3.360   7.081   0.784
 9361SOL    HW231878   3.358   7.107   0.623
 9362SOL     OW31879   2.997   6.289   0.717
 9362SOL    HW131880   3.054   6.367   0.692
 9362SOL    HW231881   2.937   6.315   0.793
 9363SOL     OW31882   3.617   6.193   0.231
 9363SOL    HW131883   3.605   6.180   0.132
 9363SOL    HW231884   3.587   6.112   0.280
 9364SOL     OW31885   2.630   6.730   1.023
 9364SOL    HW131886   2.552   6.747   1.083
 9364SOL    HW231887   2.664   6.817   0.987
 9365SOL     OW31888   2.712   6.384   1.823
 9365SOL    HW131889   2.708   6.460   1.888
 9365SOL    HW231890   2.734   6.420   1.732
 9366SOL     OW31891   2.547   6.598   0.665
 9366SOL    HW131892   2.616   6.582   0.735
 9366SOL    HW231893   2.474   6.655   0.703
 9367SOL     OW31894   2.548   6.747   1.803
 9367SOL    HW131895   2.608   6.826   1.817
 9367SOL    HW231896   2.462   6.778   1.762
 9368SOL     OW31897   2.197   7.021   1.061
 9368SOL    HW131898   2.119   6.990   1.008
 9368SOL    HW231899   2.255   7.079   1.004
 9369SOL     OW31900   3.322   7.091   1.339
 9369SOL    HW131901   3.346   7.185   1.365
 9369SOL    HW231902   3.306   7.037   1.421
 9370SOL     OW31903   2.300   5.978   1.499
 9370SOL    HW131904   2.382   5.922   1.508
 9370SOL    HW231905   2.219   5.920   1.503
 9371SOL     OW31906   3.465   6.033   0.737
 9371SOL    HW131907   3.391   6.079   0.687
 9371SOL    HW231908   3.516   6.101   0.790
 9372SOL     OW31909   2.093   7.299   0.483
 9372SOL    HW131910   2.127   7.376   0.537
 9372SOL    HW231911   2.137   7.299   0.393
 9373SOL     OW31912   2.989   6.927   1.690
 9373SOL    HW131913   3.036   6.927   1.778
 9373SOL    HW231914   2.941   6.840   1.679
 9374SOL     OW31915   2.092   7.020   0.538
 9374SOL    HW131916   2.066   7.116   0.538
 9374SOL    HW231917   2.021   6.966   0.583
 9375SOL     OW31918   2.102   6.677   0.886
 9375SOL    HW131919   2.116   6.593   0.938
 9375SOL    HW231920   2.047   6.741   0.941
 9376SOL     OW31921   2.482   7.372   1.439
 9376SOL    HW131922   2.390   7.355   1.474
 9376SOL    HW231923   2.510   7.464   1.465
 9377SOL     OW31924   2.468   6.550   0.123
 9377SOL    HW131925   2.475   6.634   0.069
 9377SOL    HW231926   2.514   6.563   0.211
 9378SOL     OW31927   3.456   5.700   1.480
 9378SOL    HW131928   3.438   5.767   1.408
 9378SOL    HW231929   3.453   5.746   1.569
 9379SOL     OW31930   1.984   6.229   0.563
 9379SOL    HW131931   1.939   6.141   0.580
 9379SOL    HW231932   1.983   6.283   0.647
 9380SOL     OW31933   3.704   7.353   0.359
 9380SOL    HW131934   3.758   7.324   0.439
 9380SOL    HW231935   3.734   7.443   0.330
 9381SOL     OW31936   1.889   7.182   0.117
 9381SOL    HW131937   1.870   7.086   0.138
 9381SOL    HW231938   1.856   7.240   0.192
 9382SOL     OW31939   3.551   6.508   0.612
 9382SOL    HW131940   3.646   6.479   0.620
 9382SOL    HW231941   3.543   6.573   0.537
 9383SOL     OW31942   3.503   6.694   0.432
 9383SOL    HW131943   3.589   6.696   0.380
 9383SOL    HW231944   3.517   6.741   0.520
 9384SOL     OW31945   1.975   6.323   1.597
 9384SOL    HW131946   2.063   6.310   1.642
 9384SOL    HW231947   1.962   6.420   1.575
 9385SOL     OW31948   2.475   6.951   0.726
 9385SOL    HW131949   2.426   6.864   0.735
 9385SOL    HW231950   2.452   6.994   0.639
 9386SOL     OW31951   3.155   6.814   1.423
 9386SOL    HW131952   3.192   6.741   1.365
 9386SOL    HW231953   3.207   6.819   1.508
 9387SOL     OW31954   2.671   5.590   0.502
 9387SOL    HW131955   2.711   5.681   0.493
 9387SOL    HW231956   2.571   5.598   0.508
 9388SOL     OW31957   2.059   6.562   1.264
 9388SOL    HW131958   2.148   6.517   1.250
 9388SOL    HW231959   1.986   6.497   1.245
 9389SOL     OW31960   3.387   6.585   0.190
 9389SOL    HW131961   3.324   6.509   0.203
 9389SOL    HW231962   3.435   6.603   0.276
 9390SOL     OW31963   3.049   7.378   1.616
 9390SOL    HW131964   3.073   7.438   1.540
 9390SOL    HW231965   3.056   7.283   1.586
 9391SOL     OW31966   2.179   5.837   1.801
 9391SOL    HW131967   2.250   5.908   1.807
 9391SOL    HW231968   2.091   5.876   1.829
 9392SOL     OW31969   3.328   7.003   0.953
 9392SOL    HW131970   3.269   7.009   1.033
 9392SOL    HW231971   3.313   6.915   0.907
 9393SOL     OW31972   3.529   7.300   0.572
 9393SOL    HW131973   3.488   7.277   0.484
 9393SOL    HW231974   3.511   7.226   0.637
 9394SOL     OW31975   2.460   6.315   0.270
 9394SOL    HW131976   2.484   6.384   0.202
 9394SOL    HW231977   2.382   6.348   0.324
 9395SOL     OW31978   3.143   5.931   0.944
 9395SOL    HW131979   3.057   5.881   0.931
 9395SOL    HW231980   3.205   5.877   1.000
 9396SOL     OW31981   3.438   7.248   0.307
 9396SOL    HW131982   3.527   7.294   0.310
 9396SOL    HW231983   3.417   7.224   0.212
 9397SOL     OW31984   2.669   6.191   1.465
 9397SOL    HW131985   2.622   6.188   1.554
 9397SOL    HW231986   2.618   6.136   1.399
 9398SOL     OW31987   3.256   6.055   1.674
 9398SOL    HW131988   3.236   6.098   1.762
 9398SOL    HW231989   3.334   5.993   1.683
 9399SOL     OW31990   2.835   6.476   1.572
 9399SOL    HW131991   2.881   6.392   1.543
 9399SOL    HW231992   2.779   6.510   1.497
 9400SOL     OW31993   2.853   5.996   1.242
 9400SOL    HW131994   2.776   6.030   1.296
 9400SOL    HW231995   2.819   5.945   1.163
 9401SOL     OW31996   2.903   6.287   0.429
 9401SOL    HW131997   2.929   6.283   0.525
 9401SOL    HW231998   2.818   6.236   0.415
 9402SOL     OW31999   1.938   6.397   0.789
 9402SOL    HW132000   2.037   6.385   0.798
 9402SOL    HW232001   1.914   6.492   0.810
 9403SOL     OW32002   1.992   7.407   1.571
 9403SOL    HW132003   1.982   7.392   1.670
 9403SOL    HW232004   1.906   7.443   1.535
 9404SOL     OW32005   2.727   5.934   0.195
 9404SOL    HW132006   2.786   5.997   0.146
 9404SOL    HW232007   2.746   5.840   0.166
 9405SOL     OW32008   3.581   6.171   1.831
 9405SOL    HW132009   3.555   6.260   1.795
 9405SOL    HW232010   3.579   6.103   1.758
 9406SOL     OW32011   3.224   6.730   0.545
 9406SOL    HW132012   3.307   6.701   0.497
 9406SOL    HW232013   3.175   6.797   0.489
 9407SOL     OW32014   2.412   5.782   0.885
 9407SOL    HW132015   2.407   5.777   0.985
 9407SOL    HW232016   2.414   5.878   0.856
 9408SOL     OW32017   2.870   7.042   0.477
 9408SOL    HW132018   2.824   7.114   0.425
 9408SOL    HW232019   2.866   7.062   0.575
 9409SOL     OW32020   2.213   7.387   0.853
 9409SOL    HW132021   2.263   7.301   0.859
 9409SOL    HW232022   2.278   7.464   0.850
 9410SOL     OW32023   3.657   6.652   0.873
 9410SOL    HW132024   3.595   6.637   0.797
 9410SOL    HW232025   3.605   6.663   0.958
 9411SOL     OW32026   3.089   7.136   1.506
 9411SOL    HW132027   3.095   7.059   1.570
 9411SOL    HW232028   3.037   7.110   1.426
 9412SOL     OW32029   2.183   6.529   0.242
 9412SOL    HW132030   2.265   6.568   0.200
 9412SOL    HW232031   2.156   6.447   0.193
 9413SOL     OW32032   3.320   6.321   0.728
 9413SOL    HW132033   3.315   6.256   0.803
 9413SOL    HW232034   3.400   6.380   0.741
 9414SOL     OW32035   2.323   6.852   1.727
 9414SOL    HW132036   2.273   6.853   1.641
 9414SOL    HW232037   2.260   6.834   1.803
 9415SOL     OW32038   2.973   7.362   0.237
 9415SOL    HW132039   2.913   7.300   0.287
 9415SOL    HW232040   3.004   7.318   0.152
 9416SOL     OW32041   2.064   5.871   1.498
 9416SOL    HW132042   1.984   5.931   1.485
 9416SOL    HW232043   2.054   5.822   1.584
 9417SOL     OW32044   3.494   6.963   0.081
 9417SOL    HW132045   3.462   7.057   0.071
 9417SOL    HW232046   3.418   6.900   0.069
 9418SOL     OW32047   2.326   7.329   0.323
 9418SOL    HW132048   2.359   7.368   0.409
 9418SOL    HW232049   2.402   7.322   0.258
 9419SOL     OW32050   3.262   5.693   0.426
 9419SOL    HW132051   3.238   5.656   0.336
 9419SOL    HW232052   3.361   5.709   0.430
 9420SOL     OW32053   2.111   7.371   1.241
 9420SOL    HW132054   2.168   7.306   1.291
 9420SOL    HW232055   2.095   7.338   1.148
 9421SOL     OW32056   2.802   7.284   0.904
 9421SOL    HW132057   2.882   7.227   0.925
 9421SOL    HW232058   2.753   7.244   0.827
 9422SOL     OW32059   2.244   6.286   0.480
 9422SOL    HW132060   2.289   6.196   0.477
 9422SOL    HW232061   2.150   6.275   0.513
 9423SOL     OW32062   3.409   5.808   1.729
 9423SOL    HW132063   3.404   5.845   1.821
 9423SOL    HW232064   3.337   5.739   1.717
 9424SOL     OW32065   2.476   5.708   0.117
 9424SOL    HW132066   2.574   5.686   0.124
 9424SOL    HW232067   2.445   5.691   0.024
 9425SOL     OW32068   2.643   5.850   1.749
 9425SOL    HW132069   2.710   5.789   1.792
 9425SOL    HW232070   2.570   5.869   1.814
 9426SOL     OW32071   2.750   7.100   1.195
 9426SOL    HW132072   2.727   7.075   1.101
 9426SOL    HW232073   2.811   7.031   1.234
 9427SOL     OW32074   3.213   6.176   1.433
 9427SOL    HW132075   3.241   6.133   1.518
 9427SOL    HW232076   3.238   6.272   1.434
 9428SOL     OW32077   2.665   6.988   0.924
 9428SOL    HW132078   2.755   7.002   0.882
 9428SOL    HW232079   2.594   6.990   0.853
 9429SOL     OW32080   2.784   6.089   0.899
 9429SOL    HW132081   2.759   6.080   0.803
 9429SOL    HW232082   2.832   6.007   0.930
 9430SOL     OW32083   2.401   5.650   0.512
 9430SOL    HW132084   2.320   5.651   0.570
 9430SOL    HW232085   2.404   5.733   0.457
 9431SOL     OW32086   3.296   6.774   0.041
 9431SOL    HW132087   3.328   6.698   0.098
 9431SOL    HW232088   3.204   6.801   0.071
 9432SOL     OW32089   2.797   5.822   0.480
 9432SOL    HW132090   2.749   5.863   0.402
 9432SOL    HW232091   2.896   5.820   0.461
 9433SOL     OW32092   2.938   6.269   1.464
 9433SOL    HW132093   2.858   6.208   1.467
 9433SOL    HW232094   3.019   6.216   1.440
 9434SOL     OW32095   3.089   7.156   0.793
 9434SOL    HW132096   3.110   7.230   0.728
 9434SOL    HW232097   3.157   7.156   0.866
 9435SOL     OW32098   2.321   6.738   0.741
 9435SOL    HW132099   2.250   6.711   0.806
 9435SOL    HW232100   2.295   6.710   0.648
 9436SOL     OW32101   3.133   7.383   0.591
 9436SOL    HW132102   3.177   7.447   0.527
 9436SOL    HW232103   3.083   7.435   0.661
 9437SOL     OW32104   2.894   6.135   0.016
 9437SOL    HW132105   2.853   6.217  -0.023
 9437SOL    HW232106   2.958   6.161   0.089
 9438SOL     OW32107   1.940   6.142   1.386
 9438SOL    HW132108   2.032   6.141   1.345
 9438SOL    HW232109   1.934   6.216   1.453
 9439SOL     OW32110   2.423   5.808   1.147
 9439SOL    HW132111   2.461   5.724   1.184
 9439SOL    HW232112   2.335   5.827   1.191
 9440SOL     OW32113   2.728   6.040   0.642
 9440SOL    HW132114   2.696   6.112   0.580
 9440SOL    HW232115   2.752   5.959   0.589
 9441SOL     OW32116   2.879   5.625   0.753
 9441SOL    HW132117   2.807   5.630   0.684
 9441SOL    HW232118   2.855   5.556   0.822
 9442SOL     OW32119   3.291   6.759   0.867
 9442SOL    HW132120   3.236   6.675   0.860
 9442SOL    HW232121   3.317   6.788   0.775
 9443SOL     OW32122   3.328   6.176   0.992
 9443SOL    HW132123   3.298   6.081   0.999
 9443SOL    HW232124   3.401   6.192   1.058
 9444SOL     OW32125   3.719   6.419   0.377
 9444SOL    HW132126   3.761   6.355   0.441
 9444SOL    HW232127   3.681   6.368   0.299
 9445SOL     OW32128   2.350   6.971   0.174
 9445SOL    HW132129   2.263   6.956   0.221
 9445SOL    HW232130   2.333   6.997   0.079
 9446SOL     OW32131   3.526   6.866   0.657
 9446SOL    HW132132   3.625   6.874   0.671
 9446SOL    HW232133   3.481   6.950   0.688
 9447SOL     OW32134   3.252   6.161   0.078
 9447SOL    HW132135   3.198   6.140   0.159
 9447SOL    HW232136   3.343   6.120   0.087
 9448SOL     OW32137   2.389   5.842   0.328
 9448SOL    HW132138   2.416   5.783   0.253
 9448SOL    HW232139   2.389   5.937   0.297
 9449SOL     OW32140   3.616   6.809   1.588
 9449SOL    HW132141   3.707   6.770   1.575
 9449SOL    HW232142   3.624   6.905   1.612
 9450SOL     OW32143   2.926   6.933   1.340
 9450SOL    HW132144   2.846   6.910   1.395
 9450SOL    HW232145   3.009   6.907   1.389
 9451SOL     OW32146   3.454   7.215   1.625
 9451SOL    HW132147   3.481   7.249   1.535
 9451SOL    HW232148   3.533   7.177   1.671
 9452SOL     OW32149   2.973   6.781   1.100
 9452SOL    HW132150   2.933   6.825   1.181
 9452SOL    HW232151   2.932   6.818   1.017
 9453SOL     OW32152   3.500   6.685   1.079
 9453SOL    HW132153   3.505   6.766   1.138
 9453SOL    HW232154   3.414   6.687   1.028
 9454SOL     OW32155   2.777   5.675   1.402
 9454SOL    HW132156   2.802   5.655   1.307
 9454SOL    HW232157   2.849   5.731   1.444
 9455SOL     OW32158   2.842   6.702   1.719
 9455SOL    HW132159   2.743   6.708   1.729
 9455SOL    HW232160   2.865   6.622   1.663
 9456SOL     OW32161   2.567   6.636   0.368
 9456SOL    HW132162   2.553   6.643   0.467
 9456SOL    HW232163   2.651   6.585   0.350
 9457SOL     OW32164   2.272   6.399   1.251
 9457SOL    HW132165   2.358   6.411   1.301
 9457SOL    HW232166   2.230   6.312   1.278
 9458SOL     OW32167   3.136   5.972   1.262
 9458SOL    HW132168   3.157   6.046   1.326
 9458SOL    HW232169   3.047   5.989   1.219
 9459SOL     OW32170   1.926   7.150   1.331
 9459SOL    HW132171   1.880   7.232   1.297
 9459SOL    HW232172   2.024   7.169   1.340
 9460SOL     OW32173   2.229   6.686   0.501
 9460SOL    HW132174   2.222   6.769   0.445
 9460SOL    HW232175   2.233   6.606   0.441
 9461SOL     OW32176   2.428   6.123   0.865
 9461SOL    HW132177   2.440   6.189   0.791
 9461SOL    HW232178   2.474   6.157   0.948
 9462SOL     OW32179   3.114   6.934   0.388
 9462SOL    HW132180   3.164   7.011   0.428
 9462SOL    HW232181   3.019   6.936   0.420
 9463SOL     OW32182   3.134   7.031   1.142
 9463SOL    HW132183   3.181   7.044   1.229
 9463SOL    HW232184   3.068   6.957   1.151
 9464SOL     OW32185   3.444   6.225   0.472
 9464SOL    HW132186   3.413   6.286   0.545
 9464SOL    HW232187   3.494   6.277   0.403
 9465SOL     OW32188   2.216   7.096   1.329
 9465SOL    HW132189   2.195   7.052   1.242
 9465SOL    HW232190   2.313   7.122   1.332
 9466SOL     OW32191   2.264   6.337   1.598
 9466SOL    HW132192   2.332   6.392   1.551
 9466SOL    HW232193   2.304   6.249   1.625
 9467SOL     OW32194   3.449   6.365   1.670
 9467SOL    HW132195   3.357   6.403   1.665
 9467SOL    HW232196   3.509   6.412   1.605
 9468SOL     OW32197   2.875   5.691   1.770
 9468SOL    HW132198   2.881   5.776   1.718
 9468SOL    HW232199   2.907   5.615   1.713
 9469SOL     OW32200   2.366   5.636   1.740
 9469SOL    HW132201   2.324   5.579   1.670
 9469SOL    HW232202   2.300   5.705   1.772
 9470SOL     OW32203   2.435   6.456   1.029
 9470SOL    HW132204   2.479   6.545   1.020
 9470SOL    HW232205   2.372   6.456   1.106
 9471SOL     OW32206   3.222   6.448   1.045
 9471SOL    HW132207   3.147   6.448   0.979
 9471SOL    HW232208   3.259   6.356   1.054
 9472SOL     OW32209   3.071   6.111   0.275
 9472SOL    HW132210   3.084   6.027   0.329
 9472SOL    HW232211   3.042   6.185   0.335
 9473SOL     OW32212   2.169   5.799   1.231
 9473SOL    HW132213   2.146   5.836   1.321
 9473SOL    HW232214   2.139   5.704   1.225
 9474SOL     OW32215   1.899   6.896   1.282
 9474SOL    HW132216   1.952   6.847   1.350
 9474SOL    HW232217   1.921   6.994   1.287
 9475SOL     OW32218   2.594   6.220   1.064
 9475SOL    HW132219   2.653   6.194   0.988
 9475SOL    HW232220   2.566   6.316   1.053
 9476SOL     OW32221   3.590   6.521   1.854
 9476SOL    HW132222   3.544   6.514   1.765
 9476SOL    HW232223   3.528   6.565   1.920
 9477SOL     OW32224   2.169   5.649   0.618
 9477SOL    HW132225   2.158   5.743   0.651
 9477SOL    HW232226   2.164   5.586   0.695
 9478SOL     OW32227   3.484   5.953   0.374
 9478SOL    HW132228   3.486   5.877   0.438
 9478SOL    HW232229   3.436   6.030   0.414
 9479SOL     OW32230   2.885   6.352   0.966
 9479SOL    HW132231   2.900   6.373   1.062
 9479SOL    HW232232   2.855   6.257   0.957
 9480SOL     OW32233   2.842   7.159   1.700
 9480SOL    HW132234   2.822   7.203   1.612
 9480SOL    HW232235   2.881   7.068   1.684
 9481SOL     OW32236   3.721   7.104   1.605
 9481SOL    HW132237   3.735   7.131   1.510
 9481SOL    HW232238   3.804   7.126   1.658
 9482SOL     OW32239   2.212   6.484   1.804
 9482SOL    HW132240   2.288   6.528   1.852
 9482SOL    HW232241   2.247   6.437   1.722
 9483SOL     OW32242   3.402   5.860   0.125
 9483SOL    HW132243   3.341   5.785   0.148
 9483SOL    HW232244   3.424   5.912   0.208
 9484SOL     OW32245   2.930   6.919   0.849
 9484SOL    HW132246   2.937   6.835   0.794
 9484SOL    HW232247   2.992   6.988   0.813
 9485SOL     OW32248   2.181   6.396   0.949
 9485SOL    HW132249   2.274   6.432   0.954
 9485SOL    HW232250   2.175   6.311   1.001
 9486SOL     OW32251   2.201   6.095   1.006
 9486SOL    HW132252   2.149   6.012   0.989
 9486SOL    HW232253   2.278   6.100   0.942
 9487SOL     OW32254   3.000   5.966   1.678
 9487SOL    HW132255   2.955   6.029   1.742
 9487SOL    HW232256   3.093   5.997   1.661
 9488SOL     OW32257   3.022   5.793   1.477
 9488SOL    HW132258   3.022   5.857   1.554
 9488SOL    HW232259   3.050   5.841   1.394
 9489SOL     OW32260   1.870   6.912   0.200
 9489SOL    HW132261   1.777   6.933   0.169
 9489SOL    HW232262   1.880   6.813   0.213
 9490SOL     OW32263   1.950   7.387   0.927
 9490SOL    HW132264   1.908   7.301   0.900
 9490SOL    HW232265   2.044   7.390   0.893
 9491SOL     OW32266   2.366   7.154   0.910
 9491SOL    HW132267   2.432   7.228   0.919
 9491SOL    HW232268   2.410   7.075   0.868
 9492SOL     OW32269   2.864   6.382   1.238
 9492SOL    HW132270   2.905   6.350   1.324
 9492SOL    HW232271   2.768   6.355   1.235
 9493SOL     OW32272   1.902   6.130   1.114
 9493SOL    HW132273   1.987   6.097   1.073
 9493SOL    HW232274   1.915   6.145   1.212
 9494SOL     OW32275   3.231   6.536   1.660
 9494SOL    HW132276   3.270   6.625   1.680
 9494SOL    HW232277   3.241   6.516   1.563
 9495SOL     OW32278   2.677   6.158   0.325
 9495SOL    HW132279   2.684   6.069   0.279
 9495SOL    HW232280   2.583   6.192   0.317
 9496SOL     OW32281   3.519   6.190   1.206
 9496SOL    HW132282   3.481   6.121   1.268
 9496SOL    HW232283   3.601   6.154   1.162
 9497SOL     OW32284   2.114   7.150   1.744
 9497SOL    HW132285   2.084   7.207   1.820
 9497SOL    HW232286   2.107   7.053   1.770
 9498SOL     OW32287   2.533   6.050   1.269
 9498SOL    HW132288   2.499   5.961   1.239
 9498SOL    HW232289   2.559   6.104   1.189
 9499SOL     OW32290   2.792   7.264   1.465
 9499SOL    HW132291   2.768   7.246   1.370
 9499SOL    HW232292   2.822   7.358   1.475
 9500SOL     OW32293   2.335   6.086   0.191
 9500SOL    HW132294   2.396   6.166   0.195
 9500SOL    HW232295   2.240   6.117   0.198
 9501SOL     OW32296   2.021   6.723   1.466
 9501SOL    HW132297   2.043   6.662   1.542
 9501SOL    HW232298   2.031   6.674   1.380
 9502SOL     OW32299   3.209   6.645   1.234
 9502SOL    HW132300   3.233   6.582   1.160
 9502SOL    HW232301   3.119   6.685   1.216
 9503SOL     OW32302   3.164   6.441   0.309
 9503SOL    HW132303   3.078   6.410   0.351
 9503SOL    HW232304   3.160   6.427   0.210
 9504SOL     OW32305   3.621   7.333   1.154
 9504SOL    HW132306   3.682   7.363   1.081
 9504SOL    HW232307   3.583   7.244   1.132
 9505SOL     OW32308   3.114   7.317   1.128
 9505SOL    HW132309   3.198   7.322   1.074
 9505SOL    HW232310   3.091   7.221   1.146
 9506SOL     OW32311   1.945   6.844   1.022
 9506SOL    HW132312   1.940   6.843   1.122
 9506SOL    HW232313   1.862   6.803   0.984
 9507SOL     OW32314   2.550   7.248   1.716
 9507SOL    HW132315   2.494   7.329   1.725
 9507SOL    HW232316   2.602   7.252   1.630
 9508SOL     OW32317   2.765   5.672   0.133
 9508SOL    HW132318   2.816   5.673   0.047
 9508SOL    HW232319   2.821   5.630   0.204
 9509SOL     OW32320   3.588   5.721   0.523
 9509SOL    HW132321   3.661   5.704   0.456
 9509SOL    HW232322   3.557   5.634   0.561
 9510SOL     OW32323   3.250   7.159   0.477
 9510SOL    HW132324   3.317   7.171   0.403
 9510SOL    HW232325   3.210   7.248   0.500
 9511SOL     OW32326   1.992   7.380   1.851
 9511SOL    HW132327   1.951   7.306   1.904
 9511SOL    HW232328   2.056   7.431   1.909
 9512SOL     OW32329   3.142   6.513   0.672
 9512SOL    HW132330   3.202   6.432   0.674
 9512SOL    HW232331   3.182   6.582   0.612
 9513SOL     OW32332   2.692   6.859   1.422
 9513SOL    HW132333   2.687   6.892   1.517
 9513SOL    HW232334   2.606   6.878   1.376
 9514SOL     OW32335   2.534   7.202   0.154
 9514SOL    HW132336   2.543   7.212   0.055
 9514SOL    HW232337   2.494   7.113   0.175
 9515SOL     OW32338   3.512   7.306   1.394
 9515SOL    HW132339   3.565   7.316   1.310
 9515SOL    HW232340   3.485   7.396   1.428
 9516SOL     OW32341   3.703   5.761   0.963
 9516SOL    HW132342   3.742   5.676   0.927
 9516SOL    HW232343   3.605   5.763   0.944
 9517SOL     OW32344   2.125   5.912   0.720
 9517SOL    HW132345   2.046   5.963   0.686
 9517SOL    HW232346   2.116   5.897   0.818
 9518SOL     OW32347   3.056   7.198   0.031
 9518SOL    HW132348   3.062   7.105   0.068
 9518SOL    HW232349   2.997   7.198  -0.049
 9519SOL     OW32350   2.684   6.588   1.372
 9519SOL    HW132351   2.724   6.587   1.280
 9519SOL    HW232352   2.694   6.680   1.412
 9520SOL     OW32353   2.778   6.496   0.291
 9520SOL    HW132354   2.841   6.534   0.223
 9520SOL    HW232355   2.818   6.413   0.330
 9521SOL     OW32356   3.366   7.193   0.044
 9521SOL    HW132357   3.274   7.230   0.051
 9521SOL    HW232358   3.404   7.213  -0.046
 9522SOL     OW32359   2.234   6.874   1.490
 9522SOL    HW132360   2.221   6.967   1.456
 9522SOL    HW232361   2.150   6.822   1.477
 9523SOL     OW32362   3.476   6.878   1.289
 9523SOL    HW132363   3.536   6.881   1.369
 9523SOL    HW232364   3.401   6.942   1.302
 9524SOL     OW32365   2.901   6.684   0.696
 9524SOL    HW132366   2.831   6.637   0.750
 9524SOL    HW232367   2.960   6.616   0.653
 9525SOL     OW32368   2.876   5.822   0.971
 9525SOL    HW132369   2.868   5.786   0.878
 9525SOL    HW232370   2.874   5.746   1.036
 9526SOL     OW32371   2.452   7.073   0.491
 9526SOL    HW132372   2.494   7.015   0.421
 9526SOL    HW232373   2.408   7.152   0.447
 9527SOL     OW32374   3.571   5.971   1.381
 9527SOL    HW132375   3.644   6.040   1.385
 9527SOL    HW232376   3.599   5.896   1.322
 9528SOL     OW32377   2.117   6.934   0.290
 9528SOL    HW132378   2.021   6.935   0.263
 9528SOL    HW232379   2.129   6.987   0.374
 9529SOL     OW32380   1.967   6.599   1.726
 9529SOL    HW132381   1.890   6.566   1.780
 9529SOL    HW232382   2.052   6.569   1.768
 9530SOL     OW32383   2.534   5.789   1.489
 9530SOL    HW132384   2.624   5.773   1.449
 9530SOL    HW232385   2.542   5.794   1.588
 9531SOL     OW32386   1.937   5.931   0.033
 9531SOL    HW132387   1.845   5.903   0.004
 9531SOL    HW232388   1.968   6.008  -0.023
 9532SOL     OW32389   3.302   6.442   1.398
 9532SOL    HW132390   3.245   6.494   1.335
 9532SOL    HW232391   3.398   6.454   1.374
 9533SOL     OW32392   1.934   5.752   0.318
 9533SOL    HW132393   1.917   5.835   0.264
 9533SOL    HW232394   2.024   5.715   0.296
 9534SOL     OW32395   3.045   6.921   0.119
 9534SOL    HW132396   2.946   6.910   0.121
 9534SOL    HW232397   3.079   6.936   0.212
 9535SOL     OW32398   2.475   6.428   1.431
 9535SOL    HW132399   2.531   6.509   1.414
 9535SOL    HW232400   2.534   6.348   1.434
 9536SOL     OW32401   3.355   7.353   0.959
 9536SOL    HW132402   3.388   7.417   0.890
 9536SOL    HW232403   3.421   7.347   1.034
 9537SOL     OW32404   2.578   6.151   1.708
 9537SOL    HW132405   2.597   6.216   1.782
 9537SOL    HW232406   2.638   6.071   1.717
 9538SOL     OW32407   3.312   6.806   1.633
 9538SOL    HW132408   3.303   6.796   1.732
 9538SOL    HW232409   3.408   6.799   1.607
 9539SOL     OW32410   2.252   7.327   1.560
 9539SOL    HW132411   2.161   7.368   1.558
 9539SOL    HW232412   2.245   7.233   1.592
 9540SOL     OW32413   3.536   6.469   1.254
 9540SOL    HW132414   3.509   6.380   1.217
 9540SOL    HW232415   3.537   6.537   1.181
 9541SOL     OW32416   3.087   5.911   0.449
 9541SOL    HW132417   3.152   5.837   0.438
 9541SOL    HW232418   3.107   5.961   0.533
 9542SOL     OW32419   2.456   6.331   0.652
 9542SOL    HW132420   2.506   6.416   0.633
 9542SOL    HW232421   2.368   6.333   0.604
 9543SOL     OW32422   3.639   5.928   1.642
 9543SOL    HW132423   3.622   5.959   1.548
 9543SOL    HW232424   3.555   5.891   1.680
 9544SOL     OW32425   3.592   6.520   1.517
 9544SOL    HW132426   3.630   6.611   1.532
 9544SOL    HW232427   3.584   6.503   1.418
 9545SOL     OW32428   2.721   6.960   0.016
 9545SOL    HW132429   2.675   6.975   0.104
 9545SOL    HW232430   2.765   7.045  -0.014
 9546SOL     OW32431   2.523   7.376   0.953
 9546SOL    HW132432   2.477   7.464   0.940
 9546SOL    HW232433   2.622   7.388   0.946
 9547SOL     OW32434   2.721   6.542   0.861
 9547SOL    HW132435   2.775   6.473   0.909
 9547SOL    HW232436   2.689   6.611   0.927
 9548SOL     OW32437   2.945   6.570   0.087
 9548SOL    HW132438   2.922   6.623   0.005
 9548SOL    HW232439   3.026   6.514   0.068
 9549SOL     OW32440   3.723   7.155   0.851
 9549SOL    HW132441   3.652   7.143   0.781
 9549SOL    HW232442   3.724   7.076   0.911
 9550SOL     OW32443   2.083   6.900   1.844
 9550SOL    HW132444   2.018   6.827   1.823
 9550SOL    HW232445   2.087   6.914   1.942
 9551SOL     OW32446   1.941   6.826   0.653
 9551SOL    HW132447   1.940   6.779   0.741
 9551SOL    HW232448   2.023   6.798   0.602
 9552SOL     OW32449   2.534   6.977   1.624
 9552SOL    HW132450   2.456   6.927   1.662
 9552SOL    HW232451   2.531   7.072   1.655
 9553SOL     OW32452   3.686   5.778   1.227
 9553SOL    HW132453   3.682   5.688   1.271
 9553SOL    HW232454   3.689   5.767   1.128
 9554SOL     OW32455   2.290   6.010   0.520
 9554SOL    HW132456   2.320   5.938   0.458
 9554SOL    HW232457   2.251   5.970   0.603
 9555SOL     OW32458   3.567   7.073   1.104
 9555SOL    HW132459   3.474   7.048   1.077
 9555SOL    HW232460   3.593   7.023   1.186
 9556SOL     OW32461   2.179   6.133   1.280
 9556SOL    HW132462   2.217   6.074   1.352
 9556SOL    HW232463   2.219   6.107   1.192
 9557SOL     OW32464   2.674   7.172   0.687
 9557SOL    HW132465   2.706   7.182   0.593
 9557SOL    HW232466   2.595   7.110   0.689
 9558SOL     OW32467   3.286   5.800   1.112
 9558SOL    HW132468   3.338   5.735   1.167
 9558SOL    HW232469   3.237   5.863   1.173
 9559SOL     OW32470   2.863   5.620   1.154
 9559SOL    HW132471   2.800   5.548   1.123
 9559SOL    HW232472   2.956   5.584   1.154
 9560SOL     OW32473   2.632   6.916   0.301
 9560SOL    HW132474   2.586   6.829   0.318
 9560SOL    HW232475   2.723   6.913   0.342
 9561SOL     OW32476   2.480   7.153   1.284
 9561SOL    HW132477   2.475   7.235   1.341
 9561SOL    HW232478   2.569   7.150   1.239
 9562SOL     OW32479   3.214   5.638   0.168
 9562SOL    HW132480   3.249   5.597   0.084
 9562SOL    HW232481   3.124   5.600   0.188
 9563SOL     OW32482   3.162   6.039   0.691
 9563SOL    HW132483   3.103   6.119   0.695
 9563SOL    HW232484   3.177   6.004   0.784
 9564SOL     OW32485   3.455   5.807   0.882
 9564SOL    HW132486   3.371   5.806   0.936
 9564SOL    HW232487   3.457   5.890   0.826
 9565SOL     OW32488   1.901   6.663   0.300
 9565SOL    HW132489   2.000   6.652   0.291
 9565SOL    HW232490   1.861   6.577   0.332
 9566SOL     OW32491   2.737   7.232   0.337
 9566SOL    HW132492   2.660   7.197   0.283
 9566SOL    HW232493   2.705   7.303   0.399
 9567SOL     OW32494   2.087   5.861   2.858
 9567SOL    HW132495   2.122   5.844   2.950
 9567SOL    HW232496   1.999   5.816   2.846
 9568SOL     OW32497   1.881   5.954   2.509
 9568SOL    HW132498   1.799   5.997   2.548
 9568SOL    HW232499   1.853   5.881   2.446
 9569SOL     OW32500   2.431   6.861   3.027
 9569SOL    HW132501   2.338   6.854   2.990
 9569SOL    HW232502   2.442   6.950   3.071
 9570SOL     OW32503   3.417   7.097   2.565
 9570SOL    HW132504   3.360   7.081   2.646
 9570SOL    HW232505   3.358   7.107   2.485
 9571SOL     OW32506   2.997   6.289   2.579
 9571SOL    HW132507   3.054   6.367   2.554
 9571SOL    HW232508   2.937   6.315   2.655
 9572SOL     OW32509   3.617   6.193   2.093
 9572SOL    HW132510   3.605   6.180   1.994
 9572SOL    HW232511   3.587   6.112   2.142
 9573SOL     OW32512   2.630   6.730   2.885
 9573SOL    HW132513   2.552   6.747   2.945
 9573SOL    HW232514   2.664   6.817   2.849
 9574SOL     OW32515   2.712   6.384   3.685
 9574SOL    HW132516   2.708   6.460   3.750
 9574SOL    HW232517   2.734   6.420   3.594
 9575SOL     OW32518   2.547   6.598   2.527
 9575SOL    HW132519   2.616   6.582   2.597
 9575SOL    HW232520   2.474   6.655   2.565
 9576SOL     OW32521   2.548   6.747   3.665
 9576SOL    HW132522   2.608   6.826   3.679
 9576SOL    HW232523   2.462   6.778   3.624
 9577SOL     OW32524   2.197   7.021   2.923
 9577SOL    HW132525   2.119   6.990   2.870
 9577SOL    HW232526   2.255   7.079   2.866
 9578SOL     OW32527   3.322   7.091   3.201
 9578SOL    HW132528   3.346   7.185   3.227
 9578SOL    HW232529   3.306   7.037   3.283
 9579SOL     OW32530   2.300   5.978   3.361
 9579SOL    HW132531   2.382   5.922   3.370
 9579SOL    HW232532   2.219   5.920   3.365
 9580SOL     OW32533   3.465   6.033   2.599
 9580SOL    HW132534   3.391   6.079   2.549
 9580SOL    HW232535   3.516   6.101   2.652
 9581SOL     OW32536   2.093   7.299   2.345
 9581SOL    HW132537   2.127   7.376   2.399
 9581SOL    HW232538   2.137   7.299   2.255
 9582SOL     OW32539   2.989   6.927   3.552
 9582SOL    HW132540   3.036   6.927   3.640
 9582SOL    HW232541   2.941   6.840   3.541
 9583SOL     OW32542   2.092   7.020   2.400
 9583SOL    HW132543   2.066   7.116   2.400
 9583SOL    HW232544   2.021   6.966   2.445
 9584SOL     OW32545   2.102   6.677   2.748
 9584SOL    HW132546   2.116   6.593   2.800
 9584SOL    HW232547   2.047   6.741   2.803
 9585SOL     OW32548   2.482   7.372   3.301
 9585SOL    HW132549   2.390   7.355   3.336
 9585SOL    HW232550   2.510   7.464   3.327
 9586SOL     OW32551   2.468   6.550   1.985
 9586SOL    HW132552   2.475   6.634   1.931
 9586SOL    HW232553   2.514   6.563   2.073
 9587SOL     OW32554   3.456   5.700   3.342
 9587SOL    HW132555   3.438   5.767   3.270
 9587SOL    HW232556   3.453   5.746   3.431
 9588SOL     OW32557   1.984   6.229   2.425
 9588SOL    HW132558   1.939   6.141   2.442
 9588SOL    HW232559   1.983   6.283   2.509
 9589SOL     OW32560   3.704   7.353   2.221
 9589SOL    HW132561   3.758   7.324   2.301
 9589SOL    HW232562   3.734   7.443   2.192
 9590SOL     OW32563   1.889   7.182   1.979
 9590SOL    HW132564   1.870   7.086   2.000
 9590SOL    HW232565   1.856   7.240   2.054
 9591SOL     OW32566   3.551   6.508   2.474
 9591SOL    HW132567   3.646   6.479   2.482
 9591SOL    HW232568   3.543   6.573   2.399
 9592SOL     OW32569   3.503   6.694   2.294
 9592SOL    HW132570   3.589   6.696   2.242
 9592SOL    HW232571   3.517   6.741   2.382
 9593SOL     OW32572   1.975   6.323   3.459
 9593SOL    HW132573   2.063   6.310   3.504
 9593SOL    HW232574   1.962   6.420   3.437
 9594SOL     OW32575   2.475   6.951   2.588
 9594SOL    HW132576   2.426   6.864   2.597
 9594SOL    HW232577   2.452   6.994   2.501
 9595SOL     OW32578   3.155   6.814   3.285
 9595SOL    HW132579   3.192   6.741   3.227
 9595SOL    HW232580   3.207   6.819   3.370
 9596SOL     OW32581   2.671   5.590   2.364
 9596SOL    HW132582   2.711   5.681   2.355
 9596SOL    HW232583   2.571   5.598   2.370
 9597SOL     OW32584   2.059   6.562   3.126
 9597SOL    HW132585   2.148   6.517   3.112
 9597SOL    HW232586   1.986   6.497   3.107
 9598SOL     OW32587   3.387   6.585   2.052
 9598SOL    HW132588   3.324   6.509   2.065
 9598SOL    HW232589   3.435   6.603   2.138
 9599SOL     OW32590   3.049   7.378   3.478
 9599SOL    HW132591   3.073   7.438   3.402
 9599SOL    HW232592   3.056   7.283   3.448
 9600SOL     OW32593   2.179   5.837   3.663
 9600SOL    HW132594   2.250   5.908   3.669
 9600SOL    HW232595   2.091   5.876   3.691
 9601SOL     OW32596   3.328   7.003   2.815
 9601SOL    HW132597   3.269   7.009   2.895
 9601SOL    HW232598   3.313   6.915   2.769
 9602SOL     OW32599   3.529   7.300   2.434
 9602SOL    HW132600   3.488   7.277   2.346
 9602SOL    HW232601   3.511   7.226   2.499
 9603SOL     OW32602   2.460   6.315   2.132
 9603SOL    HW132603   2.484   6.384   2.064
 9603SOL    HW232604   2.382   6.348   2.186
 9604SOL     OW32605   3.143   5.931   2.806
 9604SOL    HW132606   3.057   5.881   2.793
 9604SOL    HW232607   3.205   5.877   2.862
 9605SOL     OW32608   3.438   7.248   2.169
 9605SOL    HW132609   3.527   7.294   2.172
 9605SOL    HW232610   3.417   7.224   2.074
 9606SOL     OW32611   2.669   6.191   3.327
 9606SOL    HW132612   2.622   6.188   3.416
 9606SOL    HW232613   2.618   6.136   3.261
 9607SOL     OW32614   3.256   6.055   3.536
 9607SOL    HW132615   3.236   6.098   3.624
 9607SOL    HW232616   3.334   5.993   3.545
 9608SOL     OW32617   2.835   6.476   3.434
 9608SOL    HW132618   2.881   6.392   3.405
 9608SOL    HW232619   2.779   6.510   3.359
 9609SOL     OW32620   2.853   5.996   3.104
 9609SOL    HW132621   2.776   6.030   3.158
 9609SOL    HW232622   2.819   5.945   3.025
 9610SOL     OW32623   2.903   6.287   2.291
 9610SOL    HW132624   2.929   6.283   2.387
 9610SOL    HW232625   2.818   6.236   2.277
 9611SOL     OW32626   1.938   6.397   2.651
 9611SOL    HW132627   2.037   6.385   2.660
 9611SOL    HW232628   1.914   6.492   2.672
 9612SOL     OW32629   1.992   7.407   3.433
 9612SOL    HW132630   1.982   7.392   3.532
 9612SOL    HW232631   1.906   7.443   3.397
 9613SOL     OW32632   2.727   5.934   2.057
 9613SOL    HW132633   2.786   5.997   2.008
 9613SOL    HW232634   2.746   5.840   2.028
 9614SOL     OW32635   3.581   6.171   3.693
 9614SOL    HW132636   3.555   6.260   3.657
 9614SOL    HW232637   3.579   6.103   3.620
 9615SOL     OW32638   3.224   6.730   2.407
 9615SOL    HW132639   3.307   6.701   2.359
 9615SOL    HW232640   3.175   6.797   2.351
 9616SOL     OW32641   2.412   5.782   2.747
 9616SOL    HW132642   2.407   5.777   2.847
 9616SOL    HW232643   2.414   5.878   2.718
 9617SOL     OW32644   2.870   7.042   2.339
 9617SOL    HW132645   2.824   7.114   2.287
 9617SOL    HW232646   2.866   7.062   2.437
 9618SOL     OW32647   2.213   7.387   2.715
 9618SOL    HW132648   2.263   7.301   2.721
 9618SOL    HW232649   2.278   7.464   2.712
 9619SOL     OW32650   3.657   6.652   2.735
 9619SOL    HW132651   3.595   6.637   2.659
 9619SOL    HW232652   3.605   6.663   2.820
 9620SOL     OW32653   3.089   7.136   3.368
 9620SOL    HW132654   3.095   7.059   3.432
 9620SOL    HW232655   3.037   7.110   3.288
 9621SOL     OW32656   2.183   6.529   2.104
 9621SOL    HW132657   2.265   6.568   2.062
 9621SOL    HW232658   2.156   6.447   2.055
 9622SOL     OW32659   3.320   6.321   2.590
 9622SOL    HW132660   3.315   6.256   2.665
 9622SOL    HW232661   3.400   6.380   2.603
 9623SOL     OW32662   2.323   6.852   3.589
 9623SOL    HW132663   2.273   6.853   3.503
 9623SOL    HW232664   2.260   6.834   3.665
 9624SOL     OW32665   2.973   7.362   2.099
 9624SOL    HW132666   2.913   7.300   2.149
 9624SOL    HW232667   3.004   7.318   2.014
 9625SOL     OW32668   2.064   5.871   3.360
 9625SOL    HW132669   1.984   5.931   3.347
 9625SOL    HW232670   2.054   5.822   3.446
 9626SOL     OW32671   3.494   6.963   1.943
 9626SOL    HW132672   3.462   7.057   1.933
 9626SOL    HW232673   3.418   6.900   1.931
 9627SOL     OW32674   2.326   7.329   2.185
 9627SOL    HW132675   2.359   7.368   2.271
 9627SOL    HW232676   2.402   7.322   2.120
 9628SOL     OW32677   3.262   5.693   2.288
 9628SOL    HW132678   3.238   5.656   2.198
 9628SOL    HW232679   3.361   5.709   2.292
 9629SOL     OW32680   2.111   7.371   3.103
 9629SOL    HW132681   2.168   7.306   3.153
 9629SOL    HW232682   2.095   7.338   3.010
 9630SOL     OW32683   2.802   7.284   2.766
 9630SOL    HW132684   2.882   7.227   2.787
 9630SOL    HW232685   2.753   7.244   2.689
 9631SOL     OW32686   2.244   6.286   2.342
 9631SOL    HW132687   2.289   6.196   2.339
 9631SOL    HW232688   2.150   6.275   2.375
 9632SOL     OW32689   3.409   5.808   3.591
 9632SOL    HW132690   3.404   5.845   3.683
 9632SOL    HW232691   3.337   5.739   3.579
 9633SOL     OW32692   2.476   5.708   1.979
 9633SOL    HW132693   2.574   5.686   1.986
 9633SOL    HW232694   2.445   5.691   1.886
 9634SOL     OW32695   2.643   5.850   3.611
 9634SOL    HW132696   2.710   5.789   3.654
 9634SOL    HW232697   2.570   5.869   3.676
 9635SOL     OW32698   2.750   7.100   3.057
 9635SOL    HW132699   2.727   7.075   2.963
 9635SOL    HW232700   2.811   7.031   3.096
 9636SOL     OW32701   3.213   6.176   3.295
 9636SOL    HW132702   3.241   6.133   3.380
 9636SOL    HW232703   3.238   6.272   3.296
 9637SOL     OW32704   2.665   6.988   2.786
 9637SOL    HW132705   2.755   7.002   2.744
 9637SOL    HW232706   2.594   6.990   2.715
 9638SOL     OW32707   2.784   6.089   2.761
 9638SOL    HW132708   2.759   6.080   2.665
 9638SOL    HW232709   2.832   6.007   2.792
 9639SOL     OW32710   2.401   5.650   2.374
 9639SOL    HW132711   2.320   5.651   2.432
 9639SOL    HW232712   2.404   5.733   2.319
 9640SOL     OW32713   3.296   6.774   1.903
 9640SOL    HW132714   3.328   6.698   1.960
 9640SOL    HW232715   3.204   6.801   1.933
 9641SOL     OW32716   2.159   5.621   2.033
 9641SOL    HW132717   2.208   5.705   2.012
 9641SOL    HW232718   2.221   5.556   2.078
 9642SOL     OW32719   2.797   5.822   2.342
 9642SOL    HW132720   2.749   5.863   2.264
 9642SOL    HW232721   2.896   5.820   2.323
 9643SOL     OW32722   2.938   6.269   3.326
 9643SOL    HW132723   2.858   6.208   3.329
 9643SOL    HW232724   3.019   6.216   3.302
 9644SOL     OW32725   3.089   7.156   2.655
 9644SOL    HW132726   3.110   7.230   2.590
 9644SOL    HW232727   3.157   7.156   2.728
 9645SOL     OW32728   2.321   6.738   2.603
 9645SOL    HW132729   2.250   6.711   2.668
 9645SOL    HW232730   2.295   6.710   2.510
 9646SOL     OW32731   3.133   7.383   2.453
 9646SOL    HW132732   3.177   7.447   2.389
 9646SOL    HW232733   3.083   7.435   2.523
 9647SOL     OW32734   2.894   6.135   1.878
 9647SOL    HW132735   2.853   6.217   1.839
 9647SOL    HW232736   2.958   6.161   1.951
 9648SOL     OW32737   1.940   6.142   3.248
 9648SOL    HW132738   2.032   6.141   3.207
 9648SOL    HW232739   1.934   6.216   3.315
 9649SOL     OW32740   2.423   5.808   3.009
 9649SOL    HW132741   2.461   5.724   3.046
 9649SOL    HW232742   2.335   5.827   3.053
 9650SOL     OW32743   2.728   6.040   2.504
 9650SOL    HW132744   2.696   6.112   2.442
 9650SOL    HW232745   2.752   5.959   2.451
 9651SOL     OW32746   2.879   5.625   2.615
 9651SOL    HW132747   2.807   5.630   2.546
 9651SOL    HW232748   2.855   5.556   2.684
 9652SOL     OW32749   3.291   6.759   2.729
 9652SOL    HW132750   3.236   6.675   2.722
 9652SOL    HW232751   3.317   6.788   2.637
 9653SOL     OW32752   3.328   6.176   2.854
 9653SOL    HW132753   3.298   6.081   2.861
 9653SOL    HW232754   3.401   6.192   2.920
 9654SOL     OW32755   3.719   6.419   2.239
 9654SOL    HW132756   3.761   6.355   2.303
 9654SOL    HW232757   3.681   6.368   2.161
 9655SOL     OW32758   2.350   6.971   2.036
 9655SOL    HW132759   2.263   6.956   2.083
 9655SOL    HW232760   2.333   6.997   1.941
 9656SOL     OW32761   3.526   6.866   2.519
 9656SOL    HW132762   3.625   6.874   2.533
 9656SOL    HW232763   3.481   6.950   2.550
 9657SOL     OW32764   3.252   6.161   1.940
 9657SOL    HW132765   3.198   6.140   2.021
 9657SOL    HW232766   3.343   6.120   1.949
 9658SOL     OW32767   2.389   5.842   2.190
 9658SOL    HW132768   2.416   5.783   2.115
 9658SOL    HW232769   2.389   5.937   2.159
 9659SOL     OW32770   3.616   6.809   3.450
 9659SOL    HW132771   3.707   6.770   3.437
 9659SOL    HW232772   3.624   6.905   3.474
 9660SOL     OW32773   2.926   6.933   3.202
 9660SOL    HW132774   2.846   6.910   3.257
 9660SOL    HW232775   3.009   6.907   3.251
 9661SOL     OW32776   3.454   7.215   3.487
 9661SOL    HW132777   3.481   7.249   3.397
 9661SOL    HW232778   3.533   7.177   3.533
 9662SOL     OW32779   2.973   6.781   2.962
 9662SOL    HW132780   2.933   6.825   3.043
 9662SOL    HW232781   2.932   6.818   2.879
 9663SOL     OW32782   3.500   6.685   2.941
 9663SOL    HW132783   3.505   6.766   3.000
 9663SOL    HW232784   3.414   6.687   2.890
 9664SOL     OW32785   2.777   5.675   3.264
 9664SOL    HW132786   2.802   5.655   3.169
 9664SOL    HW232787   2.849   5.731   3.306
 9665SOL     OW32788   2.842   6.702   3.581
 9665SOL    HW132789   2.743   6.708   3.591
 9665SOL    HW232790   2.865   6.622   3.525
 9666SOL     OW32791   2.567   6.636   2.230
 9666SOL    HW132792   2.553   6.643   2.329
 9666SOL    HW232793   2.651   6.585   2.212
 9667SOL     OW32794   2.272   6.399   3.113
 9667SOL    HW132795   2.358   6.411   3.163
 9667SOL    HW232796   2.230   6.312   3.140
 9668SOL     OW32797   3.136   5.972   3.124
 9668SOL    HW132798   3.157   6.046   3.188
 9668SOL    HW232799   3.047   5.989   3.081
 9669SOL     OW32800   1.926   7.150   3.193
 9669SOL    HW132801   1.880   7.232   3.159
 9669SOL    HW232802   2.024   7.169   3.202
 9670SOL     OW32803   2.229   6.686   2.363
 9670SOL    HW132804   2.222   6.769   2.307
 9670SOL    HW232805   2.233   6.606   2.303
 9671SOL     OW32806   2.428   6.123   2.727
 9671SOL    HW132807   2.440   6.189   2.653
 9671SOL    HW232808   2.474   6.157   2.810
 9672SOL     OW32809   3.114   6.934   2.250
 9672SOL    HW132810   3.164   7.011   2.290
 9672SOL    HW232811   3.019   6.936   2.282
 9673SOL     OW32812   3.134   7.031   3.004
 9673SOL    HW132813   3.181   7.044   3.091
 9673SOL    HW232814   3.068   6.957   3.013
 9674SOL     OW32815   3.444   6.225   2.334
 9674SOL    HW132816   3.413   6.286   2.407
 9674SOL    HW232817   3.494   6.277   2.265
 9675SOL     OW32818   2.216   7.096   3.191
 9675SOL    HW132819   2.195   7.052   3.104
 9675SOL    HW232820   2.313   7.122   3.194
 9676SOL     OW32821   2.264   6.337   3.460
 9676SOL    HW132822   2.332   6.392   3.413
 9676SOL    HW232823   2.304   6.249   3.487
 9677SOL     OW32824   3.449   6.365   3.532
 9677SOL    HW132825   3.357   6.403   3.527
 9677SOL    HW232826   3.509   6.412   3.467
 9678SOL     OW32827   2.875   5.691   3.632
 9678SOL    HW132828   2.881   5.776   3.580
 9678SOL    HW232829   2.907   5.615   3.575
 9679SOL     OW32830   2.366   5.636   3.602
 9679SOL    HW132831   2.324   5.579   3.532
 9679SOL    HW232832   2.300   5.705   3.634
 9680SOL     OW32833   2.435   6.456   2.891
 9680SOL    HW132834   2.479   6.545   2.882
 9680SOL    HW232835   2.372   6.456   2.968
 9681SOL     OW32836   3.222   6.448   2.907
 9681SOL    HW132837   3.147   6.448   2.841
 9681SOL    HW232838   3.259   6.356   2.916
 9682SOL     OW32839   3.071   6.111   2.137
 9682SOL    HW132840   3.084   6.027   2.191
 9682SOL    HW232841   3.042   6.185   2.197
 9683SOL     OW32842   2.169   5.799   3.093
 9683SOL    HW132843   2.146   5.836   3.183
 9683SOL    HW232844   2.139   5.704   3.087
 9684SOL     OW32845   1.899   6.896   3.144
 9684SOL    HW132846   1.952   6.847   3.212
 9684SOL    HW232847   1.921   6.994   3.149
 9685SOL     OW32848   2.594   6.220   2.926
 9685SOL    HW132849   2.653   6.194   2.850
 9685SOL    HW232850   2.566   6.316   2.915
 9686SOL     OW32851   3.590   6.521   3.716
 9686SOL    HW132852   3.544   6.514   3.627
 9686SOL    HW232853   3.528   6.565   3.782
 9687SOL     OW32854   2.169   5.649   2.480
 9687SOL    HW132855   2.158   5.743   2.513
 9687SOL    HW232856   2.164   5.586   2.557
 9688SOL     OW32857   3.484   5.953   2.236
 9688SOL    HW132858   3.486   5.877   2.300
 9688SOL    HW232859   3.436   6.030   2.276
 9689SOL     OW32860   2.885   6.352   2.828
 9689SOL    HW132861   2.900   6.373   2.924
 9689SOL    HW232862   2.855   6.257   2.819
 9690SOL     OW32863   2.842   7.159   3.562
 9690SOL    HW132864   2.822   7.203   3.474
 9690SOL    HW232865   2.881   7.068   3.546
 9691SOL     OW32866   3.721   7.104   3.467
 9691SOL    HW132867   3.735   7.131   3.372
 9691SOL    HW232868   3.804   7.126   3.520
 9692SOL     OW32869   2.212   6.484   3.666
 9692SOL    HW132870   2.288   6.528   3.714
 9692SOL    HW232871   2.247   6.437   3.584
 9693SOL     OW32872   3.402   5.860   1.987
 9693SOL    HW132873   3.341   5.785   2.010
 9693SOL    HW232874   3.424   5.912   2.070
 9694SOL     OW32875   3.165   6.424   1.904
 9694SOL    HW132876   3.199   6.331   1.919
 9694SOL    HW232877   3.183   6.451   1.809
 9695SOL     OW32878   2.930   6.919   2.711
 9695SOL    HW132879   2.937   6.835   2.656
 9695SOL    HW232880   2.992   6.988   2.675
 9696SOL     OW32881   2.181   6.396   2.811
 9696SOL    HW132882   2.274   6.432   2.816
 9696SOL    HW232883   2.175   6.311   2.863
 9697SOL     OW32884   2.201   6.095   2.868
 9697SOL    HW132885   2.149   6.012   2.851
 9697SOL    HW232886   2.278   6.100   2.804
 9698SOL     OW32887   3.000   5.966   3.540
 9698SOL    HW132888   2.955   6.029   3.604
 9698SOL    HW232889   3.093   5.997   3.523
 9699SOL     OW32890   3.022   5.793   3.339
 9699SOL    HW132891   3.022   5.857   3.416
 9699SOL    HW232892   3.050   5.841   3.256
 9700SOL     OW32893   1.870   6.912   2.062
 9700SOL    HW132894   1.777   6.933   2.031
 9700SOL    HW232895   1.880   6.813   2.075
 9701SOL     OW32896   1.950   7.387   2.789
 9701SOL    HW132897   1.908   7.301   2.762
 9701SOL    HW232898   2.044   7.390   2.755
 9702SOL     OW32899   2.366   7.154   2.772
 9702SOL    HW132900   2.432   7.228   2.781
 9702SOL    HW232901   2.410   7.075   2.730
 9703SOL     OW32902   2.864   6.382   3.100
 9703SOL    HW132903   2.905   6.350   3.186
 9703SOL    HW232904   2.768   6.355   3.097
 9704SOL     OW32905   1.902   6.130   2.976
 9704SOL    HW132906   1.987   6.097   2.935
 9704SOL    HW232907   1.915   6.145   3.074
 9705SOL     OW32908   2.051   6.106   3.584
 9705SOL    HW132909   2.110   6.066   3.514
 9705SOL    HW232910   1.993   6.177   3.543
 9706SOL     OW32911   3.231   6.536   3.522
 9706SOL    HW132912   3.270   6.625   3.542
 9706SOL    HW232913   3.241   6.516   3.425
 9707SOL     OW32914   2.677   6.158   2.187
 9707SOL    HW132915   2.684   6.069   2.141
 9707SOL    HW232916   2.583   6.192   2.179
 9708SOL     OW32917   3.519   6.190   3.068
 9708SOL    HW132918   3.481   6.121   3.130
 9708SOL    HW232919   3.601   6.154   3.024
 9709SOL     OW32920   2.114   7.150   3.606
 9709SOL    HW132921   2.084   7.207   3.682
 9709SOL    HW232922   2.107   7.053   3.632
 9710SOL     OW32923   2.533   6.050   3.131
 9710SOL    HW132924   2.499   5.961   3.101
 9710SOL    HW232925   2.559   6.104   3.051
 9711SOL     OW32926   2.792   7.264   3.327
 9711SOL    HW132927   2.768   7.246   3.232
 9711SOL    HW232928   2.822   7.358   3.337
 9712SOL     OW32929   2.335   6.086   2.053
 9712SOL    HW132930   2.396   6.166   2.057
 9712SOL    HW232931   2.240   6.117   2.060
 9713SOL     OW32932   2.021   6.723   3.328
 9713SOL    HW132933   2.043   6.662   3.404
 9713SOL    HW232934   2.031   6.674   3.242
 9714SOL     OW32935   3.209   6.645   3.096
 9714SOL    HW132936   3.233   6.582   3.022
 9714SOL    HW232937   3.119   6.685   3.078
 9715SOL     OW32938   3.164   6.441   2.171
 9715SOL    HW132939   3.078   6.410   2.213
 9715SOL    HW232940   3.160   6.427   2.072
 9716SOL     OW32941   3.621   7.333   3.016
 9716SOL    HW132942   3.682   7.363   2.943
 9716SOL    HW232943   3.583   7.244   2.994
 9717SOL     OW32944   3.114   7.317   2.990
 9717SOL    HW132945   3.198   7.322   2.936
 9717SOL    HW232946   3.091   7.221   3.008
 9718SOL     OW32947   1.945   6.844   2.884
 9718SOL    HW132948   1.940   6.843   2.984
 9718SOL    HW232949   1.862   6.803   2.846
 9719SOL     OW32950   2.550   7.248   3.578
 9719SOL    HW132951   2.494   7.329   3.587
 9719SOL    HW232952   2.602   7.252   3.492
 9720SOL     OW32953   3.588   5.721   2.385
 9720SOL    HW132954   3.661   5.704   2.318
 9720SOL    HW232955   3.557   5.634   2.423
 9721SOL     OW32956   3.250   7.159   2.339
 9721SOL    HW132957   3.317   7.171   2.265
 9721SOL    HW232958   3.210   7.248   2.362
 9722SOL     OW32959   1.992   7.380   3.713
 9722SOL    HW132960   1.951   7.306   3.766
 9722SOL    HW232961   2.056   7.431   3.771
 9723SOL     OW32962   3.142   6.513   2.534
 9723SOL    HW132963   3.202   6.432   2.536
 9723SOL    HW232964   3.182   6.582   2.474
 9724SOL     OW32965   2.692   6.859   3.284
 9724SOL    HW132966   2.687   6.892   3.379
 9724SOL    HW232967   2.606   6.878   3.238
 9725SOL     OW32968   2.534   7.202   2.016
 9725SOL    HW132969   2.543   7.212   1.917
 9725SOL    HW232970   2.494   7.113   2.037
 9726SOL     OW32971   3.512   7.306   3.256
 9726SOL    HW132972   3.565   7.316   3.172
 9726SOL    HW232973   3.485   7.396   3.290
 9727SOL     OW32974   3.703   5.761   2.825
 9727SOL    HW132975   3.742   5.676   2.789
 9727SOL    HW232976   3.605   5.763   2.806
 9728SOL     OW32977   2.125   5.912   2.582
 9728SOL    HW132978   2.046   5.963   2.548
 9728SOL    HW232979   2.116   5.897   2.680
 9729SOL     OW32980   3.056   7.198   1.893
 9729SOL    HW132981   3.062   7.105   1.930
 9729SOL    HW232982   2.997   7.198   1.813
 9730SOL     OW32983   2.684   6.588   3.234
 9730SOL    HW132984   2.724   6.587   3.142
 9730SOL    HW232985   2.694   6.680   3.274
 9731SOL     OW32986   2.778   6.496   2.153
 9731SOL    HW132987   2.841   6.534   2.085
 9731SOL    HW232988   2.818   6.413   2.192
 9732SOL     OW32989   3.366   7.193   1.906
 9732SOL    HW132990   3.274   7.230   1.913
 9732SOL    HW232991   3.404   7.213   1.816
 9733SOL     OW32992   2.234   6.874   3.352
 9733SOL    HW132993   2.221   6.967   3.318
 9733SOL    HW232994   2.150   6.822   3.339
 9734SOL     OW32995   3.476   6.878   3.151
 9734SOL    HW132996   3.536   6.881   3.231
 9734SOL    HW232997   3.401   6.942   3.164
 9735SOL     OW32998   2.901   6.684   2.558
 9735SOL    HW132999   2.831   6.637   2.612
 9735SOL    HW233000   2.960   6.616   2.515
 9736SOL     OW33001   2.876   5.822   2.833
 9736SOL    HW133002   2.868   5.786   2.740
 9736SOL    HW233003   2.874   5.746   2.898
 9737SOL     OW33004   2.452   7.073   2.353
 9737SOL    HW133005   2.494   7.015   2.283
 9737SOL    HW233006   2.408   7.152   2.309
 9738SOL     OW33007   3.571   5.971   3.243
 9738SOL    HW133008   3.644   6.040   3.247
 9738SOL    HW233009   3.599   5.896   3.184
 9739SOL     OW33010   2.117   6.934   2.152
 9739SOL    HW133011   2.021   6.935   2.125
 9739SOL    HW233012   2.129   6.987   2.236
 9740SOL     OW33013   1.967   6.599   3.588
 9740SOL    HW133014   1.890   6.566   3.642
 9740SOL    HW233015   2.052   6.569   3.630
 9741SOL     OW33016   2.534   5.789   3.351
 9741SOL    HW133017   2.624   5.773   3.311
 9741SOL    HW233018   2.542   5.794   3.450
 9742SOL     OW33019   3.302   6.442   3.260
 9742SOL    HW133020   3.245   6.494   3.197
 9742SOL    HW233021   3.398   6.454   3.236
 9743SOL     OW33022   1.934   5.752   2.180
 9743SOL    HW133023   1.917   5.835   2.126
 9743SOL    HW233024   2.024   5.715   2.158
 9744SOL     OW33025   3.045   6.921   1.981
 9744SOL    HW133026   2.946   6.910   1.983
 9744SOL    HW233027   3.079   6.936   2.074
 9745SOL     OW33028   2.475   6.428   3.293
 9745SOL    HW133029   2.531   6.509   3.276
 9745SOL    HW233030   2.534   6.348   3.296
 9746SOL     OW33031   3.355   7.353   2.821
 9746SOL    HW133032   3.388   7.417   2.752
 9746SOL    HW233033   3.421   7.347   2.896
 9747SOL     OW33034   2.578   6.151   3.570
 9747SOL    HW133035   2.597   6.216   3.644
 9747SOL    HW233036   2.638   6.071   3.579
 9748SOL     OW33037   3.312   6.806   3.495
 9748SOL    HW133038   3.303   6.796   3.594
 9748SOL    HW233039   3.408   6.799   3.469
 9749SOL     OW33040   2.252   7.327   3.422
 9749SOL    HW133041   2.161   7.368   3.420
 9749SOL    HW233042   2.245   7.233   3.454
 9750SOL     OW33043   3.536   6.469   3.116
 9750SOL    HW133044   3.509   6.380   3.079
 9750SOL    HW233045   3.537   6.537   3.043
 9751SOL     OW33046   3.087   5.911   2.311
 9751SOL    HW133047   3.152   5.837   2.300
 9751SOL    HW233048   3.107   5.961   2.395
 9752SOL     OW33049   2.456   6.331   2.514
 9752SOL    HW133050   2.506   6.416   2.495
 9752SOL    HW233051   2.368   6.333   2.466
 9753SOL     OW33052   3.639   5.928   3.504
 9753SOL    HW133053   3.622   5.959   3.410
 9753SOL    HW233054   3.555   5.891   3.542
 9754SOL     OW33055   3.592   6.520   3.379
 9754SOL    HW133056   3.630   6.611   3.394
 9754SOL    HW233057   3.584   6.503   3.280
 9755SOL     OW33058   2.721   6.960   1.878
 9755SOL    HW133059   2.675   6.975   1.966
 9755SOL    HW233060   2.765   7.045   1.848
 9756SOL     OW33061   2.523   7.376   2.815
 9756SOL    HW133062   2.477   7.464   2.802
 9756SOL    HW233063   2.622   7.388   2.808
 9757SOL     OW33064   2.721   6.542   2.723
 9757SOL    HW133065   2.775   6.473   2.771
 9757SOL    HW233066   2.689   6.611   2.789
 9758SOL     OW33067   2.945   6.570   1.949
 9758SOL    HW133068   2.922   6.623   1.867
 9758SOL    HW233069   3.026   6.514   1.930
 9759SOL     OW33070   3.723   7.155   2.713
 9759SOL    HW133071   3.652   7.143   2.643
 9759SOL    HW233072   3.724   7.076   2.773
 9760SOL     OW33073   2.083   6.900   3.706
 9760SOL    HW133074   2.018   6.827   3.685
 9760SOL    HW233075   2.087   6.914   3.804
 9761SOL     OW33076   1.941   6.826   2.515
 9761SOL    HW133077   1.940   6.779   2.603
 9761SOL    HW233078   2.023   6.798   2.464
 9762SOL     OW33079   2.534   6.977   3.486
 9762SOL    HW133080   2.456   6.927   3.524
 9762SOL    HW233081   2.531   7.072   3.517
 9763SOL     OW33082   3.686   5.778   3.089
 9763SOL    HW133083   3.682   5.688   3.133
 9763SOL    HW233084   3.689   5.767   2.990
 9764SOL     OW33085   2.290   6.010   2.382
 9764SOL    HW133086   2.320   5.938   2.320
 9764SOL    HW233087   2.251   5.970   2.465
 9765SOL     OW33088   3.567   7.073   2.966
 9765SOL    HW133089   3.474   7.048   2.939
 9765SOL    HW233090   3.593   7.023   3.048
 9766SOL     OW33091   2.179   6.133   3.142
 9766SOL    HW133092   2.217   6.074   3.214
 9766SOL    HW233093   2.219   6.107   3.054
 9767SOL     OW33094   2.674   7.172   2.549
 9767SOL    HW133095   2.706   7.182   2.455
 9767SOL    HW233096   2.595   7.110   2.551
 9768SOL     OW33097   3.286   5.800   2.974
 9768SOL    HW133098   3.338   5.735   3.029
 9768SOL    HW233099   3.237   5.863   3.035
 9769SOL     OW33100   2.863   5.620   3.016
 9769SOL    HW133101   2.800   5.548   2.985
 9769SOL    HW233102   2.956   5.584   3.016
 9770SOL     OW33103   2.632   6.916   2.163
 9770SOL    HW133104   2.586   6.829   2.180
 9770SOL    HW233105   2.723   6.913   2.204
 9771SOL     OW33106   2.480   7.153   3.146
 9771SOL    HW133107   2.475   7.235   3.203
 9771SOL    HW233108   2.569   7.150   3.101
 9772SOL     OW33109   3.214   5.638   2.030
 9772SOL    HW133110   3.249   5.597   1.946
 9772SOL    HW233111   3.124   5.600   2.050
 9773SOL     OW33112   3.162   6.039   2.553
 9773SOL    HW133113   3.103   6.119   2.557
 9773SOL    HW233114   3.177   6.004   2.646
 9774SOL     OW33115   3.455   5.807   2.744
 9774SOL    HW133116   3.371   5.806   2.798
 9774SOL    HW233117   3.457   5.890   2.688
 9775SOL     OW33118   1.901   6.663   2.162
 9775SOL    HW133119   2.000   6.652   2.153
 9775SOL    HW233120   1.861   6.577   2.194
 9776SOL     OW33121   2.737   7.232   2.199
 9776SOL    HW133122   2.660   7.197   2.145
 9776SOL    HW233123   2.705   7.303   2.261
 9777SOL     OW33124   2.092   6.214   3.837
 9777SOL    HW133125   1.999   6.212   3.874
 9777SOL    HW233126   2.093   6.175   3.745
 9778SOL     OW33127   2.087   5.861   4.720
 9778SOL    HW133128   2.122   5.844   4.812
 9778SOL    HW233129   1.999   5.816   4.708
 9779SOL     OW33130   1.881   5.954   4.371
 9779SOL    HW133131   1.799   5.997   4.410
 9779SOL    HW233132   1.853   5.881   4.308
 9780SOL     OW33133   3.417   7.097   4.427
 9780SOL    HW133134   3.360   7.081   4.508
 9780SOL    HW233135   3.358   7.107   4.347
 9781SOL     OW33136   2.997   6.289   4.441
 9781SOL    HW133137   3.054   6.367   4.416
 9781SOL    HW233138   2.937   6.315   4.517
 9782SOL     OW33139   3.617   6.193   3.955
 9782SOL    HW133140   3.605   6.180   3.856
 9782SOL    HW233141   3.587   6.112   4.004
 9783SOL     OW33142   2.712   6.384   5.547
 9783SOL    HW133143   2.708   6.460   5.612
 9783SOL    HW233144   2.734   6.420   5.456
 9784SOL     OW33145   2.547   6.598   4.389
 9784SOL    HW133146   2.616   6.582   4.459
 9784SOL    HW233147   2.474   6.655   4.427
 9785SOL     OW33148   2.548   6.747   5.527
 9785SOL    HW133149   2.608   6.826   5.541
 9785SOL    HW233150   2.462   6.778   5.486
 9786SOL     OW33151   2.197   7.021   4.785
 9786SOL    HW133152   2.119   6.990   4.732
 9786SOL    HW233153   2.255   7.079   4.728
 9787SOL     OW33154   3.322   7.091   5.063
 9787SOL    HW133155   3.346   7.185   5.089
 9787SOL    HW233156   3.306   7.037   5.145
 9788SOL     OW33157   2.300   5.978   5.223
 9788SOL    HW133158   2.382   5.922   5.232
 9788SOL    HW233159   2.219   5.920   5.227
 9789SOL     OW33160   3.465   6.033   4.461
 9789SOL    HW133161   3.391   6.079   4.411
 9789SOL    HW233162   3.516   6.101   4.514
 9790SOL     OW33163   2.093   7.299   4.207
 9790SOL    HW133164   2.127   7.376   4.261
 9790SOL    HW233165   2.137   7.299   4.117
 9791SOL     OW33166   2.989   6.927   5.414
 9791SOL    HW133167   3.036   6.927   5.502
 9791SOL    HW233168   2.941   6.840   5.403
 9792SOL     OW33169   2.092   7.020   4.262
 9792SOL    HW133170   2.066   7.116   4.262
 9792SOL    HW233171   2.021   6.966   4.307
 9793SOL     OW33172   2.102   6.677   4.610
 9793SOL    HW133173   2.116   6.593   4.662
 9793SOL    HW233174   2.047   6.741   4.665
 9794SOL     OW33175   2.482   7.372   5.163
 9794SOL    HW133176   2.390   7.355   5.198
 9794SOL    HW233177   2.510   7.464   5.189
 9795SOL     OW33178   2.468   6.550   3.847
 9795SOL    HW133179   2.475   6.634   3.793
 9795SOL    HW233180   2.514   6.563   3.935
 9796SOL     OW33181   3.456   5.700   5.204
 9796SOL    HW133182   3.438   5.767   5.132
 9796SOL    HW233183   3.453   5.746   5.293
 9797SOL     OW33184   1.984   6.229   4.287
 9797SOL    HW133185   1.939   6.141   4.304
 9797SOL    HW233186   1.983   6.283   4.371
 9798SOL     OW33187   3.704   7.353   4.083
 9798SOL    HW133188   3.758   7.324   4.163
 9798SOL    HW233189   3.734   7.443   4.054
 9799SOL     OW33190   1.889   7.182   3.841
 9799SOL    HW133191   1.870   7.086   3.862
 9799SOL    HW233192   1.856   7.240   3.916
 9800SOL     OW33193   3.551   6.508   4.336
 9800SOL    HW133194   3.646   6.479   4.344
 9800SOL    HW233195   3.543   6.573   4.261
 9801SOL     OW33196   3.503   6.694   4.156
 9801SOL    HW133197   3.589   6.696   4.104
 9801SOL    HW233198   3.517   6.741   4.244
 9802SOL     OW33199   1.975   6.323   5.321
 9802SOL    HW133200   2.063   6.310   5.366
 9802SOL    HW233201   1.962   6.420   5.299
 9803SOL     OW33202   2.475   6.951   4.450
 9803SOL    HW133203   2.426   6.864   4.459
 9803SOL    HW233204   2.452   6.994   4.363
 9804SOL     OW33205   3.155   6.814   5.147
 9804SOL    HW133206   3.192   6.741   5.089
 9804SOL    HW233207   3.207   6.819   5.232
 9805SOL     OW33208   2.671   5.590   4.226
 9805SOL    HW133209   2.711   5.681   4.217
 9805SOL    HW233210   2.571   5.598   4.232
 9806SOL     OW33211   2.059   6.562   4.988
 9806SOL    HW133212   2.148   6.517   4.974
 9806SOL    HW233213   1.986   6.497   4.969
 9807SOL     OW33214   3.387   6.585   3.914
 9807SOL    HW133215   3.324   6.509   3.927
 9807SOL    HW233216   3.435   6.603   4.000
 9808SOL     OW33217   3.049   7.378   5.340
 9808SOL    HW133218   3.073   7.438   5.264
 9808SOL    HW233219   3.056   7.283   5.310
 9809SOL     OW33220   2.179   5.837   5.525
 9809SOL    HW133221   2.250   5.908   5.531
 9809SOL    HW233222   2.091   5.876   5.553
 9810SOL     OW33223   3.328   7.003   4.677
 9810SOL    HW133224   3.269   7.009   4.757
 9810SOL    HW233225   3.313   6.915   4.631
 9811SOL     OW33226   3.529   7.300   4.296
 9811SOL    HW133227   3.488   7.277   4.208
 9811SOL    HW233228   3.511   7.226   4.361
 9812SOL     OW33229   2.460   6.315   3.994
 9812SOL    HW133230   2.484   6.384   3.926
 9812SOL    HW233231   2.382   6.348   4.048
 9813SOL     OW33232   3.143   5.931   4.668
 9813SOL    HW133233   3.057   5.881   4.655
 9813SOL    HW233234   3.205   5.877   4.724
 9814SOL     OW33235   3.438   7.248   4.031
 9814SOL    HW133236   3.527   7.294   4.034
 9814SOL    HW233237   3.417   7.224   3.936
 9815SOL     OW33238   2.669   6.191   5.189
 9815SOL    HW133239   2.622   6.188   5.278
 9815SOL    HW233240   2.618   6.136   5.123
 9816SOL     OW33241   3.256   6.055   5.398
 9816SOL    HW133242   3.236   6.098   5.486
 9816SOL    HW233243   3.334   5.993   5.407
 9817SOL     OW33244   2.835   6.476   5.296
 9817SOL    HW133245   2.881   6.392   5.267
 9817SOL    HW233246   2.779   6.510   5.221
 9818SOL     OW33247   2.853   5.996   4.966
 9818SOL    HW133248   2.776   6.030   5.020
 9818SOL    HW233249   2.819   5.945   4.887
 9819SOL     OW33250   2.903   6.287   4.153
 9819SOL    HW133251   2.929   6.283   4.249
 9819SOL    HW233252   2.818   6.236   4.139
 9820SOL     OW33253   1.938   6.397   4.513
 9820SOL    HW133254   2.037   6.385   4.522
 9820SOL    HW233255   1.914   6.492   4.534
 9821SOL     OW33256   1.992   7.407   5.295
 9821SOL    HW133257   1.982   7.392   5.394
 9821SOL    HW233258   1.906   7.443   5.259
 9822SOL     OW33259   2.727   5.934   3.919
 9822SOL    HW133260   2.786   5.997   3.870
 9822SOL    HW233261   2.746   5.840   3.890
 9823SOL     OW33262   3.581   6.171   5.555
 9823SOL    HW133263   3.555   6.260   5.519
 9823SOL    HW233264   3.579   6.103   5.482
 9824SOL     OW33265   3.224   6.730   4.269
 9824SOL    HW133266   3.307   6.701   4.221
 9824SOL    HW233267   3.175   6.797   4.213
 9825SOL     OW33268   2.412   5.782   4.609
 9825SOL    HW133269   2.407   5.777   4.709
 9825SOL    HW233270   2.414   5.878   4.580
 9826SOL     OW33271   2.870   7.042   4.201
 9826SOL    HW133272   2.824   7.114   4.149
 9826SOL    HW233273   2.866   7.062   4.299
 9827SOL     OW33274   2.213   7.387   4.577
 9827SOL    HW133275   2.263   7.301   4.583
 9827SOL    HW233276   2.278   7.464   4.574
 9828SOL     OW33277   3.657   6.652   4.597
 9828SOL    HW133278   3.595   6.637   4.521
 9828SOL    HW233279   3.605   6.663   4.682
 9829SOL     OW33280   3.089   7.136   5.230
 9829SOL    HW133281   3.095   7.059   5.294
 9829SOL    HW233282   3.037   7.110   5.150
 9830SOL     OW33283   2.183   6.529   3.966
 9830SOL    HW133284   2.265   6.568   3.924
 9830SOL    HW233285   2.156   6.447   3.917
 9831SOL     OW33286   3.320   6.321   4.452
 9831SOL    HW133287   3.315   6.256   4.527
 9831SOL    HW233288   3.400   6.380   4.465
 9832SOL     OW33289   2.323   6.852   5.451
 9832SOL    HW133290   2.273   6.853   5.365
 9832SOL    HW233291   2.260   6.834   5.527
 9833SOL     OW33292   2.973   7.362   3.961
 9833SOL    HW133293   2.913   7.300   4.011
 9833SOL    HW233294   3.004   7.318   3.876
 9834SOL     OW33295   2.064   5.871   5.222
 9834SOL    HW133296   1.984   5.931   5.209
 9834SOL    HW233297   2.054   5.822   5.308
 9835SOL     OW33298   3.494   6.963   3.805
 9835SOL    HW133299   3.462   7.057   3.795
 9835SOL    HW233300   3.418   6.900   3.793
 9836SOL     OW33301   2.326   7.329   4.047
 9836SOL    HW133302   2.359   7.368   4.133
 9836SOL    HW233303   2.402   7.322   3.982
 9837SOL     OW33304   3.262   5.693   4.150
 9837SOL    HW133305   3.238   5.656   4.060
 9837SOL    HW233306   3.361   5.709   4.154
 9838SOL     OW33307   2.111   7.371   4.965
 9838SOL    HW133308   2.168   7.306   5.015
 9838SOL    HW233309   2.095   7.338   4.872
 9839SOL     OW33310   2.802   7.284   4.628
 9839SOL    HW133311   2.882   7.227   4.649
 9839SOL    HW233312   2.753   7.244   4.551
 9840SOL     OW33313   2.244   6.286   4.204
 9840SOL    HW133314   2.289   6.196   4.201
 9840SOL    HW233315   2.150   6.275   4.237
 9841SOL     OW33316   3.409   5.808   5.453
 9841SOL    HW133317   3.404   5.845   5.545
 9841SOL    HW233318   3.337   5.739   5.441
 9842SOL     OW33319   2.476   5.708   3.841
 9842SOL    HW133320   2.574   5.686   3.848
 9842SOL    HW233321   2.445   5.691   3.748
 9843SOL     OW33322   2.643   5.850   5.473
 9843SOL    HW133323   2.710   5.789   5.516
 9843SOL    HW233324   2.570   5.869   5.538
 9844SOL     OW33325   3.213   6.176   5.157
 9844SOL    HW133326   3.241   6.133   5.242
 9844SOL    HW233327   3.238   6.272   5.158
 9845SOL     OW33328   2.784   6.089   4.623
 9845SOL    HW133329   2.759   6.080   4.527
 9845SOL    HW233330   2.832   6.007   4.654
 9846SOL     OW33331   2.401   5.650   4.236
 9846SOL    HW133332   2.320   5.651   4.294
 9846SOL    HW233333   2.404   5.733   4.181
 9847SOL     OW33334   3.296   6.774   3.765
 9847SOL    HW133335   3.328   6.698   3.822
 9847SOL    HW233336   3.204   6.801   3.795
 9848SOL     OW33337   2.159   5.621   3.895
 9848SOL    HW133338   2.208   5.705   3.874
 9848SOL    HW233339   2.221   5.556   3.940
 9849SOL     OW33340   2.797   5.822   4.204
 9849SOL    HW133341   2.749   5.863   4.126
 9849SOL    HW233342   2.896   5.820   4.185
 9850SOL     OW33343   2.938   6.269   5.188
 9850SOL    HW133344   2.858   6.208   5.191
 9850SOL    HW233345   3.019   6.216   5.164
 9851SOL     OW33346   3.089   7.156   4.517
 9851SOL    HW133347   3.110   7.230   4.452
 9851SOL    HW233348   3.157   7.156   4.590
 9852SOL     OW33349   2.321   6.738   4.465
 9852SOL    HW133350   2.250   6.711   4.530
 9852SOL    HW233351   2.295   6.710   4.372
 9853SOL     OW33352   3.133   7.383   4.315
 9853SOL    HW133353   3.177   7.447   4.251
 9853SOL    HW233354   3.083   7.435   4.385
 9854SOL     OW33355   2.894   6.135   3.740
 9854SOL    HW133356   2.853   6.217   3.701
 9854SOL    HW233357   2.958   6.161   3.813
 9855SOL     OW33358   1.940   6.142   5.110
 9855SOL    HW133359   2.032   6.141   5.069
 9855SOL    HW233360   1.934   6.216   5.177
 9856SOL     OW33361   2.423   5.808   4.871
 9856SOL    HW133362   2.461   5.724   4.908
 9856SOL    HW233363   2.335   5.827   4.915
 9857SOL     OW33364   2.728   6.040   4.366
 9857SOL    HW133365   2.696   6.112   4.304
 9857SOL    HW233366   2.752   5.959   4.313
 9858SOL     OW33367   2.879   5.625   4.477
 9858SOL    HW133368   2.807   5.630   4.408
 9858SOL    HW233369   2.855   5.556   4.546
 9859SOL     OW33370   3.291   6.759   4.591
 9859SOL    HW133371   3.236   6.675   4.584
 9859SOL    HW233372   3.317   6.788   4.499
 9860SOL     OW33373   3.328   6.176   4.716
 9860SOL    HW133374   3.298   6.081   4.723
 9860SOL    HW233375   3.401   6.192   4.782
 9861SOL     OW33376   3.719   6.419   4.101
 9861SOL    HW133377   3.761   6.355   4.165
 9861SOL    HW233378   3.681   6.368   4.023
 9862SOL     OW33379   2.350   6.971   3.898
 9862SOL    HW133380   2.263   6.956   3.945
 9862SOL    HW233381   2.333   6.997   3.803
 9863SOL     OW33382   3.526   6.866   4.381
 9863SOL    HW133383   3.625   6.874   4.395
 9863SOL    HW233384   3.481   6.950   4.412
 9864SOL     OW33385   3.252   6.161   3.802
 9864SOL    HW133386   3.198   6.140   3.883
 9864SOL    HW233387   3.343   6.120   3.811
 9865SOL     OW33388   2.389   5.842   4.052
 9865SOL    HW133389   2.416   5.783   3.977
 9865SOL    HW233390   2.389   5.937   4.021
 9866SOL     OW33391   3.616   6.809   5.312
 9866SOL    HW133392   3.707   6.770   5.299
 9866SOL    HW233393   3.624   6.905   5.336
 9867SOL     OW33394   2.926   6.933   5.064
 9867SOL    HW133395   2.846   6.910   5.119
 9867SOL    HW233396   3.009   6.907   5.113
 9868SOL     OW33397   3.454   7.215   5.349
 9868SOL    HW133398   3.481   7.249   5.259
 9868SOL    HW233399   3.533   7.177   5.395
 9869SOL     OW33400   2.973   6.781   4.824
 9869SOL    HW133401   2.933   6.825   4.905
 9869SOL    HW233402   2.932   6.818   4.741
 9870SOL     OW33403   3.500   6.685   4.803
 9870SOL    HW133404   3.505   6.766   4.862
 9870SOL    HW233405   3.414   6.687   4.752
 9871SOL     OW33406   2.777   5.675   5.126
 9871SOL    HW133407   2.802   5.655   5.031
 9871SOL    HW233408   2.849   5.731   5.168
 9872SOL     OW33409   2.842   6.702   5.443
 9872SOL    HW133410   2.743   6.708   5.453
 9872SOL    HW233411   2.865   6.622   5.387
 9873SOL     OW33412   2.567   6.636   4.092
 9873SOL    HW133413   2.553   6.643   4.191
 9873SOL    HW233414   2.651   6.585   4.074
 9874SOL     OW33415   2.272   6.399   4.975
 9874SOL    HW133416   2.358   6.411   5.025
 9874SOL    HW233417   2.230   6.312   5.002
 9875SOL     OW33418   3.136   5.972   4.986
 9875SOL    HW133419   3.157   6.046   5.050
 9875SOL    HW233420   3.047   5.989   4.943
 9876SOL     OW33421   1.926   7.150   5.055
 9876SOL    HW133422   1.880   7.232   5.021
 9876SOL    HW233423   2.024   7.169   5.064
 9877SOL     OW33424   2.229   6.686   4.225
 9877SOL    HW133425   2.222   6.769   4.169
 9877SOL    HW233426   2.233   6.606   4.165
 9878SOL     OW33427   2.428   6.123   4.589
 9878SOL    HW133428   2.440   6.189   4.515
 9878SOL    HW233429   2.474   6.157   4.672
 9879SOL     OW33430   3.114   6.934   4.112
 9879SOL    HW133431   3.164   7.011   4.152
 9879SOL    HW233432   3.019   6.936   4.144
 9880SOL     OW33433   3.134   7.031   4.866
 9880SOL    HW133434   3.181   7.044   4.953
 9880SOL    HW233435   3.068   6.957   4.875
 9881SOL     OW33436   3.444   6.225   4.196
 9881SOL    HW133437   3.413   6.286   4.269
 9881SOL    HW233438   3.494   6.277   4.127
 9882SOL     OW33439   2.264   6.337   5.322
 9882SOL    HW133440   2.332   6.392   5.275
 9882SOL    HW233441   2.304   6.249   5.349
 9883SOL     OW33442   3.449   6.365   5.394
 9883SOL    HW133443   3.357   6.403   5.389
 9883SOL    HW233444   3.509   6.412   5.329
 9884SOL     OW33445   2.875   5.691   5.494
 9884SOL    HW133446   2.881   5.776   5.442
 9884SOL    HW233447   2.907   5.615   5.437
 9885SOL     OW33448   2.366   5.636   5.464
 9885SOL    HW133449   2.324   5.579   5.394
 9885SOL    HW233450   2.300   5.705   5.496
 9886SOL     OW33451   2.435   6.456   4.753
 9886SOL    HW133452   2.479   6.545   4.744
 9886SOL    HW233453   2.372   6.456   4.830
 9887SOL     OW33454   3.222   6.448   4.769
 9887SOL    HW133455   3.147   6.448   4.703
 9887SOL    HW233456   3.259   6.356   4.778
 9888SOL     OW33457   3.071   6.111   3.999
 9888SOL    HW133458   3.084   6.027   4.053
 9888SOL    HW233459   3.042   6.185   4.059
 9889SOL     OW33460   2.169   5.799   4.955
 9889SOL    HW133461   2.146   5.836   5.045
 9889SOL    HW233462   2.139   5.704   4.949
 9890SOL     OW33463   1.899   6.896   5.006
 9890SOL    HW133464   1.952   6.847   5.074
 9890SOL    HW233465   1.921   6.994   5.011
 9891SOL     OW33466   2.594   6.220   4.788
 9891SOL    HW133467   2.653   6.194   4.712
 9891SOL    HW233468   2.566   6.316   4.777
 9892SOL     OW33469   3.590   6.521   5.578
 9892SOL    HW133470   3.544   6.514   5.489
 9892SOL    HW233471   3.528   6.565   5.644
 9893SOL     OW33472   3.484   5.953   4.098
 9893SOL    HW133473   3.486   5.877   4.162
 9893SOL    HW233474   3.436   6.030   4.138
 9894SOL     OW33475   2.885   6.352   4.690
 9894SOL    HW133476   2.900   6.373   4.786
 9894SOL    HW233477   2.855   6.257   4.681
 9895SOL     OW33478   2.842   7.159   5.424
 9895SOL    HW133479   2.822   7.203   5.336
 9895SOL    HW233480   2.881   7.068   5.408
 9896SOL     OW33481   3.721   7.104   5.329
 9896SOL    HW133482   3.735   7.131   5.234
 9896SOL    HW233483   3.804   7.126   5.382
 9897SOL     OW33484   2.212   6.484   5.528
 9897SOL    HW133485   2.288   6.528   5.576
 9897SOL    HW233486   2.247   6.437   5.446
 9898SOL     OW33487   3.402   5.860   3.849
 9898SOL    HW133488   3.341   5.785   3.872
 9898SOL    HW233489   3.424   5.912   3.932
 9899SOL     OW33490   3.165   6.424   3.766
 9899SOL    HW133491   3.199   6.331   3.781
 9899SOL    HW233492   3.183   6.451   3.671
 9900SOL     OW33493   2.930   6.919   4.573
 9900SOL    HW133494   2.937   6.835   4.518
 9900SOL    HW233495   2.992   6.988   4.537
 9901SOL     OW33496   2.181   6.396   4.673
 9901SOL    HW133497   2.274   6.432   4.678
 9901SOL    HW233498   2.175   6.311   4.725
 9902SOL     OW33499   2.201   6.095   4.730
 9902SOL    HW133500   2.149   6.012   4.713
 9902SOL    HW233501   2.278   6.100   4.666
 9903SOL     OW33502   3.000   5.966   5.402
 9903SOL    HW133503   2.955   6.029   5.466
 9903SOL    HW233504   3.093   5.997   5.385
 9904SOL     OW33505   3.022   5.793   5.201
 9904SOL    HW133506   3.022   5.857   5.278
 9904SOL    HW233507   3.050   5.841   5.118
 9905SOL     OW33508   1.870   6.912   3.924
 9905SOL    HW133509   1.777   6.933   3.893
 9905SOL    HW233510   1.880   6.813   3.937
 9906SOL     OW33511   1.950   7.387   4.651
 9906SOL    HW133512   1.908   7.301   4.624
 9906SOL    HW233513   2.044   7.390   4.617
 9907SOL     OW33514   2.366   7.154   4.634
 9907SOL    HW133515   2.432   7.228   4.643
 9907SOL    HW233516   2.410   7.075   4.592
 9908SOL     OW33517   2.864   6.382   4.962
 9908SOL    HW133518   2.905   6.350   5.048
 9908SOL    HW233519   2.768   6.355   4.959
 9909SOL     OW33520   1.902   6.130   4.838
 9909SOL    HW133521   1.987   6.097   4.797
 9909SOL    HW233522   1.915   6.145   4.936
 9910SOL     OW33523   2.051   6.106   5.446
 9910SOL    HW133524   2.110   6.066   5.376
 9910SOL    HW233525   1.993   6.177   5.405
 9911SOL     OW33526   3.231   6.536   5.384
 9911SOL    HW133527   3.270   6.625   5.404
 9911SOL    HW233528   3.241   6.516   5.287
 9912SOL     OW33529   2.677   6.158   4.049
 9912SOL    HW133530   2.684   6.069   4.003
 9912SOL    HW233531   2.583   6.192   4.041
 9913SOL     OW33532   3.519   6.190   4.930
 9913SOL    HW133533   3.481   6.121   4.992
 9913SOL    HW233534   3.601   6.154   4.886
 9914SOL     OW33535   2.114   7.150   5.468
 9914SOL    HW133536   2.084   7.207   5.544
 9914SOL    HW233537   2.107   7.053   5.494
 9915SOL     OW33538   2.533   6.050   4.993
 9915SOL    HW133539   2.499   5.961   4.963
 9915SOL    HW233540   2.559   6.104   4.913
 9916SOL     OW33541   2.792   7.264   5.189
 9916SOL    HW133542   2.768   7.246   5.094
 9916SOL    HW233543   2.822   7.358   5.199
 9917SOL     OW33544   2.335   6.086   3.915
 9917SOL    HW133545   2.396   6.166   3.919
 9917SOL    HW233546   2.240   6.117   3.922
 9918SOL     OW33547   2.021   6.723   5.190
 9918SOL    HW133548   2.043   6.662   5.266
 9918SOL    HW233549   2.031   6.674   5.104
 9919SOL     OW33550   3.209   6.645   4.958
 9919SOL    HW133551   3.233   6.582   4.884
 9919SOL    HW233552   3.119   6.685   4.940
 9920SOL     OW33553   3.164   6.441   4.033
 9920SOL    HW133554   3.078   6.410   4.075
 9920SOL    HW233555   3.160   6.427   3.934
 9921SOL     OW33556   3.621   7.333   4.878
 9921SOL    HW133557   3.682   7.363   4.805
 9921SOL    HW233558   3.583   7.244   4.856
 9922SOL     OW33559   3.114   7.317   4.852
 9922SOL    HW133560   3.198   7.322   4.798
 9922SOL    HW233561   3.091   7.221   4.870
 9923SOL     OW33562   1.945   6.844   4.746
 9923SOL    HW133563   1.940   6.843   4.846
 9923SOL    HW233564   1.862   6.803   4.708
 9924SOL     OW33565   2.550   7.248   5.440
 9924SOL    HW133566   2.494   7.329   5.449
 9924SOL    HW233567   2.602   7.252   5.354
 9925SOL     OW33568   3.588   5.721   4.247
 9925SOL    HW133569   3.661   5.704   4.180
 9925SOL    HW233570   3.557   5.634   4.285
 9926SOL     OW33571   3.250   7.159   4.201
 9926SOL    HW133572   3.317   7.171   4.127
 9926SOL    HW233573   3.210   7.248   4.224
 9927SOL     OW33574   1.992   7.380   5.575
 9927SOL    HW133575   1.951   7.306   5.628
 9927SOL    HW233576   2.056   7.431   5.633
 9928SOL     OW33577   3.142   6.513   4.396
 9928SOL    HW133578   3.202   6.432   4.398
 9928SOL    HW233579   3.182   6.582   4.336
 9929SOL     OW33580   2.692   6.859   5.146
 9929SOL    HW133581   2.687   6.892   5.241
 9929SOL    HW233582   2.606   6.878   5.100
 9930SOL     OW33583   2.534   7.202   3.878
 9930SOL    HW133584   2.543   7.212   3.779
 9930SOL    HW233585   2.494   7.113   3.899
 9931SOL     OW33586   3.512   7.306   5.118
 9931SOL    HW133587   3.565   7.316   5.034
 9931SOL    HW233588   3.485   7.396   5.152
 9932SOL     OW33589   3.703   5.761   4.687
 9932SOL    HW133590   3.742   5.676   4.651
 9932SOL    HW233591   3.605   5.763   4.668
 9933SOL     OW33592   2.125   5.912   4.444
 9933SOL    HW133593   2.046   5.963   4.410
 9933SOL    HW233594   2.116   5.897   4.542
 9934SOL     OW33595   3.056   7.198   3.755
 9934SOL    HW133596   3.062   7.105   3.792
 9934SOL    HW233597   2.997   7.198   3.675
 9935SOL     OW33598   2.684   6.588   5.096
 9935SOL    HW133599   2.724   6.587   5.004
 9935SOL    HW233600   2.694   6.680   5.136
 9936SOL     OW33601   2.778   6.496   4.015
 9936SOL    HW133602   2.841   6.534   3.947
 9936SOL    HW233603   2.818   6.413   4.054
 9937SOL     OW33604   3.366   7.193   3.768
 9937SOL    HW133605   3.274   7.230   3.775
 9937SOL    HW233606   3.404   7.213   3.678
 9938SOL     OW33607   2.234   6.874   5.214
 9938SOL    HW133608   2.221   6.967   5.180
 9938SOL    HW233609   2.150   6.822   5.201
 9939SOL     OW33610   3.476   6.878   5.013
 9939SOL    HW133611   3.536   6.881   5.093
 9939SOL    HW233612   3.401   6.942   5.026
 9940SOL     OW33613   2.901   6.684   4.420
 9940SOL    HW133614   2.831   6.637   4.474
 9940SOL    HW233615   2.960   6.616   4.377
 9941SOL     OW33616   2.876   5.822   4.695
 9941SOL    HW133617   2.868   5.786   4.602
 9941SOL    HW233618   2.874   5.746   4.760
 9942SOL     OW33619   2.452   7.073   4.215
 9942SOL    HW133620   2.494   7.015   4.145
 9942SOL    HW233621   2.408   7.152   4.171
 9943SOL     OW33622   3.571   5.971   5.105
 9943SOL    HW133623   3.644   6.040   5.109
 9943SOL    HW233624   3.599   5.896   5.046
 9944SOL     OW33625   2.117   6.934   4.014
 9944SOL    HW133626   2.021   6.935   3.987
 9944SOL    HW233627   2.129   6.987   4.098
 9945SOL     OW33628   1.967   6.599   5.450
 9945SOL    HW133629   1.890   6.566   5.504
 9945SOL    HW233630   2.052   6.569   5.492
 9946SOL     OW33631   2.534   5.789   5.213
 9946SOL    HW133632   2.624   5.773   5.173
 9946SOL    HW233633   2.542   5.794   5.312
 9947SOL     OW33634   1.937   5.931   3.757
 9947SOL    HW133635   1.845   5.903   3.728
 9947SOL    HW233636   1.968   6.008   3.701
 9948SOL     OW33637   3.302   6.442   5.122
 9948SOL    HW133638   3.245   6.494   5.059
 9948SOL    HW233639   3.398   6.454   5.098
 9949SOL     OW33640   1.934   5.752   4.042
 9949SOL    HW133641   1.917   5.835   3.988
 9949SOL    HW233642   2.024   5.715   4.020
 9950SOL     OW33643   3.045   6.921   3.843
 9950SOL    HW133644   2.946   6.910   3.845
 9950SOL    HW233645   3.079   6.936   3.936
 9951SOL     OW33646   2.475   6.428   5.155
 9951SOL    HW133647   2.531   6.509   5.138
 9951SOL    HW233648   2.534   6.348   5.158
 9952SOL     OW33649   3.355   7.353   4.683
 9952SOL    HW133650   3.388   7.417   4.614
 9952SOL    HW233651   3.421   7.347   4.758
 9953SOL     OW33652   2.578   6.151   5.432
 9953SOL    HW133653   2.597   6.216   5.506
 9953SOL    HW233654   2.638   6.071   5.441
 9954SOL     OW33655   3.312   6.806   5.357
 9954SOL    HW133656   3.303   6.796   5.456
 9954SOL    HW233657   3.408   6.799   5.331
 9955SOL     OW33658   2.252   7.327   5.284
 9955SOL    HW133659   2.161   7.368   5.282
 9955SOL    HW233660   2.245   7.233   5.316
 9956SOL     OW33661   3.536   6.469   4.978
 9956SOL    HW133662   3.509   6.380   4.941
 9956SOL    HW233663   3.537   6.537   4.905
 9957SOL     OW33664   3.087   5.911   4.173
 9957SOL    HW133665   3.152   5.837   4.162
 9957SOL    HW233666   3.107   5.961   4.257
 9958SOL     OW33667   2.456   6.331   4.376
 9958SOL    HW133668   2.506   6.416   4.357
 9958SOL    HW233669   2.368   6.333   4.328
 9959SOL     OW33670   3.639   5.928   5.366
 9959SOL    HW133671   3.622   5.959   5.272
 9959SOL    HW233672   3.555   5.891   5.404
 9960SOL     OW33673   3.592   6.520   5.241
 9960SOL    HW133674   3.630   6.611   5.256
 9960SOL    HW233675   3.584   6.503   5.142
 9961SOL     OW33676   2.721   6.960   3.740
 9961SOL    HW133677   2.675   6.975   3.828
 9961SOL    HW233678   2.765   7.045   3.710
 9962SOL     OW33679   2.721   6.542   4.585
 9962SOL    HW133680   2.775   6.473   4.633
 9962SOL    HW233681   2.689   6.611   4.651
 9963SOL     OW33682   2.945   6.570   3.811
 9963SOL    HW133683   2.922   6.623   3.729
 9963SOL    HW233684   3.026   6.514   3.792
 9964SOL     OW33685   3.723   7.155   4.575
 9964SOL    HW133686   3.652   7.143   4.505
 9964SOL    HW233687   3.724   7.076   4.635
 9965SOL     OW33688   2.083   6.900   5.568
 9965SOL    HW133689   2.018   6.827   5.547
 9965SOL    HW233690   2.087   6.914   5.666
 9966SOL     OW33691   1.941   6.826   4.377
 9966SOL    HW133692   1.940   6.779   4.465
 9966SOL    HW233693   2.023   6.798   4.326
 9967SOL     OW33694   2.534   6.977   5.348
 9967SOL    HW133695   2.456   6.927   5.386
 9967SOL    HW233696   2.531   7.072   5.379
 9968SOL     OW33697   3.686   5.778   4.951
 9968SOL    HW133698   3.682   5.688   4.995
 9968SOL    HW233699   3.689   5.767   4.852
 9969SOL     OW33700   2.290   6.010   4.244
 9969SOL    HW133701   2.320   5.938   4.182
 9969SOL    HW233702   2.251   5.970   4.327
 9970SOL     OW33703   3.567   7.073   4.828
 9970SOL    HW133704   3.474   7.048   4.801
 9970SOL    HW233705   3.593   7.023   4.910
 9971SOL     OW33706   2.179   6.133   5.004
 9971SOL    HW133707   2.217   6.074   5.076
 9971SOL    HW233708   2.219   6.107   4.916
 9972SOL     OW33709   2.674   7.172   4.411
 9972SOL    HW133710   2.706   7.182   4.317
 9972SOL    HW233711   2.595   7.110   4.413
 9973SOL     OW33712   3.286   5.800   4.836
 9973SOL    HW133713   3.338   5.735   4.891
 9973SOL    HW233714   3.237   5.863   4.897
 9974SOL     OW33715   2.863   5.620   4.878
 9974SOL    HW133716   2.800   5.548   4.847
 9974SOL    HW233717   2.956   5.584   4.878
 9975SOL     OW33718   2.632   6.916   4.025
 9975SOL    HW133719   2.586   6.829   4.042
 9975SOL    HW233720   2.723   6.913   4.066
 9976SOL     OW33721   3.214   5.638   3.892
 9976SOL    HW133722   3.249   5.597   3.808
 9976SOL    HW233723   3.124   5.600   3.912
 9977SOL     OW33724   3.162   6.039   4.415
 9977SOL    HW133725   3.103   6.119   4.419
 9977SOL    HW233726   3.177   6.004   4.508
 9978SOL     OW33727   3.455   5.807   4.606
 9978SOL    HW133728   3.371   5.806   4.660
 9978SOL    HW233729   3.457   5.890   4.550
 9979SOL     OW33730   1.901   6.663   4.024
 9979SOL    HW133731   2.000   6.652   4.015
 9979SOL    HW233732   1.861   6.577   4.056
 9980SOL     OW33733   2.737   7.232   4.061
 9980SOL    HW133734   2.660   7.197   4.007
 9980SOL    HW233735   2.705   7.303   4.123
 9981SOL     OW33736   2.092   6.214   5.699
 9981SOL    HW133737   1.999   6.212   5.736
 9981SOL    HW233738   2.093   6.175   5.607
 9982SOL     OW33739   2.087   5.861   6.582
 9982SOL    HW133740   2.122   5.844   6.674
 9982SOL    HW233741   1.999   5.816   6.570
 9983SOL     OW33742   2.431   6.861   6.751
 9983SOL    HW133743   2.338   6.854   6.714
 9983SOL    HW233744   2.442   6.950   6.795
 9984SOL     OW33745   3.417   7.097   6.289
 9984SOL    HW133746   3.360   7.081   6.370
 9984SOL    HW233747   3.358   7.107   6.209
 9985SOL     OW33748   2.997   6.289   6.303
 9985SOL    HW133749   3.054   6.367   6.278
 9985SOL    HW233750   2.937   6.315   6.379
 9986SOL     OW33751   3.617   6.193   5.817
 9986SOL    HW133752   3.605   6.180   5.718
 9986SOL    HW233753   3.587   6.112   5.866
 9987SOL     OW33754   2.630   6.730   6.609
 9987SOL    HW133755   2.552   6.747   6.669
 9987SOL    HW233756   2.664   6.817   6.573
 9988SOL     OW33757   2.712   6.384   7.409
 9988SOL    HW133758   2.708   6.460   7.474
 9988SOL    HW233759   2.734   6.420   7.318
 9989SOL     OW33760   2.547   6.598   6.251
 9989SOL    HW133761   2.616   6.582   6.321
 9989SOL    HW233762   2.474   6.655   6.289
 9990SOL     OW33763   2.548   6.747   7.389
 9990SOL    HW133764   2.608   6.826   7.403
 9990SOL    HW233765   2.462   6.778   7.348
 9991SOL     OW33766   2.197   7.021   6.647
 9991SOL    HW133767   2.119   6.990   6.594
 9991SOL    HW233768   2.255   7.079   6.590
 9992SOL     OW33769   3.322   7.091   6.925
 9992SOL    HW133770   3.346   7.185   6.951
 9992SOL    HW233771   3.306   7.037   7.007
 9993SOL     OW33772   2.300   5.978   7.085
 9993SOL    HW133773   2.382   5.922   7.094
 9993SOL    HW233774   2.219   5.920   7.089
 9994SOL     OW33775   3.465   6.033   6.323
 9994SOL    HW133776   3.391   6.079   6.273
 9994SOL    HW233777   3.516   6.101   6.376
 9995SOL     OW33778   2.093   7.299   6.069
 9995SOL    HW133779   2.127   7.376   6.123
 9995SOL    HW233780   2.137   7.299   5.979
 9996SOL     OW33781   2.989   6.927   7.276
 9996SOL    HW133782   3.036   6.927   7.364
 9996SOL    HW233783   2.941   6.840   7.265
 9997SOL     OW33784   2.092   7.020   6.124
 9997SOL    HW133785   2.066   7.116   6.124
 9997SOL    HW233786   2.021   6.966   6.169
 9998SOL     OW33787   2.102   6.677   6.472
 9998SOL    HW133788   2.116   6.593   6.524
 9998SOL    HW233789   2.047   6.741   6.527
 9999SOL     OW33790   2.482   7.372   7.025
 9999SOL    HW133791   2.390   7.355   7.060
 9999SOL    HW233792   2.510   7.464   7.051
10000SOL     OW33793   2.468   6.550   5.709
10000SOL    HW133794   2.475   6.634   5.655
10000SOL    HW233795   2.514   6.563   5.797
10001SOL     OW33796   3.456   5.700   7.066
10001SOL    HW133797   3.438   5.767   6.994
10001SOL    HW233798   3.453   5.746   7.155
10002SOL     OW33799   3.704   7.353   5.945
10002SOL    HW133800   3.758   7.324   6.025
10002SOL    HW233801   3.734   7.443   5.916
10003SOL     OW33802   1.889   7.182   5.703
10003SOL    HW133803   1.870   7.086   5.724
10003SOL    HW233804   1.856   7.240   5.778
10004SOL     OW33805   3.551   6.508   6.198
10004SOL    HW133806   3.646   6.479   6.206
10004SOL    HW233807   3.543   6.573   6.123
10005SOL     OW33808   3.503   6.694   6.018
10005SOL    HW133809   3.589   6.696   5.966
10005SOL    HW233810   3.517   6.741   6.106
10006SOL     OW33811   1.975   6.323   7.183
10006SOL    HW133812   2.063   6.310   7.228
10006SOL    HW233813   1.962   6.420   7.161
10007SOL     OW33814   2.475   6.951   6.312
10007SOL    HW133815   2.426   6.864   6.321
10007SOL    HW233816   2.452   6.994   6.225
10008SOL     OW33817   3.155   6.814   7.009
10008SOL    HW133818   3.192   6.741   6.951
10008SOL    HW233819   3.207   6.819   7.094
10009SOL     OW33820   2.671   5.590   6.088
10009SOL    HW133821   2.711   5.681   6.079
10009SOL    HW233822   2.571   5.598   6.094
10010SOL     OW33823   2.059   6.562   6.850
10010SOL    HW133824   2.148   6.517   6.836
10010SOL    HW233825   1.986   6.497   6.831
10011SOL     OW33826   3.387   6.585   5.776
10011SOL    HW133827   3.324   6.509   5.789
10011SOL    HW233828   3.435   6.603   5.862
10012SOL     OW33829   3.049   7.378   7.202
10012SOL    HW133830   3.073   7.438   7.126
10012SOL    HW233831   3.056   7.283   7.172
10013SOL     OW33832   2.179   5.837   7.387
10013SOL    HW133833   2.250   5.908   7.393
10013SOL    HW233834   2.091   5.876   7.415
10014SOL     OW33835   3.328   7.003   6.539
10014SOL    HW133836   3.269   7.009   6.619
10014SOL    HW233837   3.313   6.915   6.493
10015SOL     OW33838   3.529   7.300   6.158
10015SOL    HW133839   3.488   7.277   6.070
10015SOL    HW233840   3.511   7.226   6.223
10016SOL     OW33841   2.460   6.315   5.856
10016SOL    HW133842   2.484   6.384   5.788
10016SOL    HW233843   2.382   6.348   5.910
10017SOL     OW33844   3.143   5.931   6.530
10017SOL    HW133845   3.057   5.881   6.517
10017SOL    HW233846   3.205   5.877   6.586
10018SOL     OW33847   3.438   7.248   5.893
10018SOL    HW133848   3.527   7.294   5.896
10018SOL    HW233849   3.417   7.224   5.798
10019SOL     OW33850   2.669   6.191   7.051
10019SOL    HW133851   2.622   6.188   7.140
10019SOL    HW233852   2.618   6.136   6.985
10020SOL     OW33853   3.256   6.055   7.260
10020SOL    HW133854   3.236   6.098   7.348
10020SOL    HW233855   3.334   5.993   7.269
10021SOL     OW33856   2.835   6.476   7.158
10021SOL    HW133857   2.881   6.392   7.129
10021SOL    HW233858   2.779   6.510   7.083
10022SOL     OW33859   2.853   5.996   6.828
10022SOL    HW133860   2.776   6.030   6.882
10022SOL    HW233861   2.819   5.945   6.749
10023SOL     OW33862   2.903   6.287   6.015
10023SOL    HW133863   2.929   6.283   6.111
10023SOL    HW233864   2.818   6.236   6.001
10024SOL     OW33865   1.938   6.397   6.375
10024SOL    HW133866   2.037   6.385   6.384
10024SOL    HW233867   1.914   6.492   6.396
10025SOL     OW33868   1.992   7.407   7.157
10025SOL    HW133869   1.982   7.392   7.256
10025SOL    HW233870   1.906   7.443   7.121
10026SOL     OW33871   2.727   5.934   5.781
10026SOL    HW133872   2.786   5.997   5.732
10026SOL    HW233873   2.746   5.840   5.752
10027SOL     OW33874   3.581   6.171   7.417
10027SOL    HW133875   3.555   6.260   7.381
10027SOL    HW233876   3.579   6.103   7.344
10028SOL     OW33877   3.224   6.730   6.131
10028SOL    HW133878   3.307   6.701   6.083
10028SOL    HW233879   3.175   6.797   6.075
10029SOL     OW33880   2.412   5.782   6.471
10029SOL    HW133881   2.407   5.777   6.571
10029SOL    HW233882   2.414   5.878   6.442
10030SOL     OW33883   2.870   7.042   6.063
10030SOL    HW133884   2.824   7.114   6.011
10030SOL    HW233885   2.866   7.062   6.161
10031SOL     OW33886   2.213   7.387   6.439
10031SOL    HW133887   2.263   7.301   6.445
10031SOL    HW233888   2.278   7.464   6.436
10032SOL     OW33889   3.657   6.652   6.459
10032SOL    HW133890   3.595   6.637   6.383
10032SOL    HW233891   3.605   6.663   6.544
10033SOL     OW33892   3.089   7.136   7.092
10033SOL    HW133893   3.095   7.059   7.156
10033SOL    HW233894   3.037   7.110   7.012
10034SOL     OW33895   2.183   6.529   5.828
10034SOL    HW133896   2.265   6.568   5.786
10034SOL    HW233897   2.156   6.447   5.779
10035SOL     OW33898   3.320   6.321   6.314
10035SOL    HW133899   3.315   6.256   6.389
10035SOL    HW233900   3.400   6.380   6.327
10036SOL     OW33901   2.323   6.852   7.313
10036SOL    HW133902   2.273   6.853   7.227
10036SOL    HW233903   2.260   6.834   7.389
10037SOL     OW33904   2.973   7.362   5.823
10037SOL    HW133905   2.913   7.300   5.873
10037SOL    HW233906   3.004   7.318   5.738
10038SOL     OW33907   2.064   5.871   7.084
10038SOL    HW133908   1.984   5.931   7.071
10038SOL    HW233909   2.054   5.822   7.170
10039SOL     OW33910   3.494   6.963   5.667
10039SOL    HW133911   3.462   7.057   5.657
10039SOL    HW233912   3.418   6.900   5.655
10040SOL     OW33913   2.326   7.329   5.909
10040SOL    HW133914   2.359   7.368   5.995
10040SOL    HW233915   2.402   7.322   5.844
10041SOL     OW33916   3.262   5.693   6.012
10041SOL    HW133917   3.238   5.656   5.922
10041SOL    HW233918   3.361   5.709   6.016
10042SOL     OW33919   2.111   7.371   6.827
10042SOL    HW133920   2.168   7.306   6.877
10042SOL    HW233921   2.095   7.338   6.734
10043SOL     OW33922   2.802   7.284   6.490
10043SOL    HW133923   2.882   7.227   6.511
10043SOL    HW233924   2.753   7.244   6.413
10044SOL     OW33925   2.244   6.286   6.066
10044SOL    HW133926   2.289   6.196   6.063
10044SOL    HW233927   2.150   6.275   6.099
10045SOL     OW33928   3.409   5.808   7.315
10045SOL    HW133929   3.404   5.845   7.407
10045SOL    HW233930   3.337   5.739   7.303
10046SOL     OW33931   2.476   5.708   5.703
10046SOL    HW133932   2.574   5.686   5.710
10046SOL    HW233933   2.445   5.691   5.610
10047SOL     OW33934   2.643   5.850   7.335
10047SOL    HW133935   2.710   5.789   7.378
10047SOL    HW233936   2.570   5.869   7.400
10048SOL     OW33937   2.750   7.100   6.781
10048SOL    HW133938   2.727   7.075   6.687
10048SOL    HW233939   2.811   7.031   6.820
10049SOL     OW33940   3.213   6.176   7.019
10049SOL    HW133941   3.241   6.133   7.104
10049SOL    HW233942   3.238   6.272   7.020
10050SOL     OW33943   2.665   6.988   6.510
10050SOL    HW133944   2.755   7.002   6.468
10050SOL    HW233945   2.594   6.990   6.439
10051SOL     OW33946   2.784   6.089   6.485
10051SOL    HW133947   2.759   6.080   6.389
10051SOL    HW233948   2.832   6.007   6.516
10052SOL     OW33949   2.401   5.650   6.098
10052SOL    HW133950   2.320   5.651   6.156
10052SOL    HW233951   2.404   5.733   6.043
10053SOL     OW33952   3.296   6.774   5.627
10053SOL    HW133953   3.328   6.698   5.684
10053SOL    HW233954   3.204   6.801   5.657
10054SOL     OW33955   2.159   5.621   5.757
10054SOL    HW133956   2.208   5.705   5.736
10054SOL    HW233957   2.221   5.556   5.802
10055SOL     OW33958   2.797   5.822   6.066
10055SOL    HW133959   2.749   5.863   5.988
10055SOL    HW233960   2.896   5.820   6.047
10056SOL     OW33961   2.938   6.269   7.050
10056SOL    HW133962   2.858   6.208   7.053
10056SOL    HW233963   3.019   6.216   7.026
10057SOL     OW33964   3.089   7.156   6.379
10057SOL    HW133965   3.110   7.230   6.314
10057SOL    HW233966   3.157   7.156   6.452
10058SOL     OW33967   2.321   6.738   6.327
10058SOL    HW133968   2.250   6.711   6.392
10058SOL    HW233969   2.295   6.710   6.234
10059SOL     OW33970   3.133   7.383   6.177
10059SOL    HW133971   3.177   7.447   6.113
10059SOL    HW233972   3.083   7.435   6.247
10060SOL     OW33973   2.894   6.135   5.602
10060SOL    HW133974   2.853   6.217   5.563
10060SOL    HW233975   2.958   6.161   5.675
10061SOL     OW33976   1.940   6.142   6.972
10061SOL    HW133977   2.032   6.141   6.931
10061SOL    HW233978   1.934   6.216   7.039
10062SOL     OW33979   2.423   5.808   6.733
10062SOL    HW133980   2.461   5.724   6.770
10062SOL    HW233981   2.335   5.827   6.777
10063SOL     OW33982   2.728   6.040   6.228
10063SOL    HW133983   2.696   6.112   6.166
10063SOL    HW233984   2.752   5.959   6.175
10064SOL     OW33985   2.879   5.625   6.339
10064SOL    HW133986   2.807   5.630   6.270
10064SOL    HW233987   2.855   5.556   6.408
10065SOL     OW33988   3.291   6.759   6.453
10065SOL    HW133989   3.236   6.675   6.446
10065SOL    HW233990   3.317   6.788   6.361
10066SOL     OW33991   3.328   6.176   6.578
10066SOL    HW133992   3.298   6.081   6.585
10066SOL    HW233993   3.401   6.192   6.644
10067SOL     OW33994   3.719   6.419   5.963
10067SOL    HW133995   3.761   6.355   6.027
10067SOL    HW233996   3.681   6.368   5.885
10068SOL     OW33997   2.350   6.971   5.760
10068SOL    HW133998   2.263   6.956   5.807
10068SOL    HW233999   2.333   6.997   5.665
10069SOL     OW34000   3.526   6.866   6.243
10069SOL    HW134001   3.625   6.874   6.257
10069SOL    HW234002   3.481   6.950   6.274
10070SOL     OW34003   3.252   6.161   5.664
10070SOL    HW134004   3.198   6.140   5.745
10070SOL    HW234005   3.343   6.120   5.673
10071SOL     OW34006   2.389   5.842   5.914
10071SOL    HW134007   2.416   5.783   5.839
10071SOL    HW234008   2.389   5.937   5.883
10072SOL     OW34009   3.616   6.809   7.174
10072SOL    HW134010   3.707   6.770   7.161
10072SOL    HW234011   3.624   6.905   7.198
10073SOL     OW34012   2.926   6.933   6.926
10073SOL    HW134013   2.846   6.910   6.981
10073SOL    HW234014   3.009   6.907   6.975
10074SOL     OW34015   3.454   7.215   7.211
10074SOL    HW134016   3.481   7.249   7.121
10074SOL    HW234017   3.533   7.177   7.257
10075SOL     OW34018   2.973   6.781   6.686
10075SOL    HW134019   2.933   6.825   6.767
10075SOL    HW234020   2.932   6.818   6.603
10076SOL     OW34021   3.500   6.685   6.665
10076SOL    HW134022   3.505   6.766   6.724
10076SOL    HW234023   3.414   6.687   6.614
10077SOL     OW34024   2.777   5.675   6.988
10077SOL    HW134025   2.802   5.655   6.893
10077SOL    HW234026   2.849   5.731   7.030
10078SOL     OW34027   2.842   6.702   7.305
10078SOL    HW134028   2.743   6.708   7.315
10078SOL    HW234029   2.865   6.622   7.249
10079SOL     OW34030   2.567   6.636   5.954
10079SOL    HW134031   2.553   6.643   6.053
10079SOL    HW234032   2.651   6.585   5.936
10080SOL     OW34033   2.272   6.399   6.837
10080SOL    HW134034   2.358   6.411   6.887
10080SOL    HW234035   2.230   6.312   6.864
10081SOL     OW34036   3.136   5.972   6.848
10081SOL    HW134037   3.157   6.046   6.912
10081SOL    HW234038   3.047   5.989   6.805
10082SOL     OW34039   1.926   7.150   6.917
10082SOL    HW134040   1.880   7.232   6.883
10082SOL    HW234041   2.024   7.169   6.926
10083SOL     OW34042   2.229   6.686   6.087
10083SOL    HW134043   2.222   6.769   6.031
10083SOL    HW234044   2.233   6.606   6.027
10084SOL     OW34045   2.428   6.123   6.451
10084SOL    HW134046   2.440   6.189   6.377
10084SOL    HW234047   2.474   6.157   6.534
10085SOL     OW34048   3.114   6.934   5.974
10085SOL    HW134049   3.164   7.011   6.014
10085SOL    HW234050   3.019   6.936   6.006
10086SOL     OW34051   3.134   7.031   6.728
10086SOL    HW134052   3.181   7.044   6.815
10086SOL    HW234053   3.068   6.957   6.737
10087SOL     OW34054   3.444   6.225   6.058
10087SOL    HW134055   3.413   6.286   6.131
10087SOL    HW234056   3.494   6.277   5.989
10088SOL     OW34057   2.216   7.096   6.915
10088SOL    HW134058   2.195   7.052   6.828
10088SOL    HW234059   2.313   7.122   6.918
10089SOL     OW34060   2.264   6.337   7.184
10089SOL    HW134061   2.332   6.392   7.137
10089SOL    HW234062   2.304   6.249   7.211
10090SOL     OW34063   3.449   6.365   7.256
10090SOL    HW134064   3.357   6.403   7.251
10090SOL    HW234065   3.509   6.412   7.191
10091SOL     OW34066   2.875   5.691   7.356
10091SOL    HW134067   2.881   5.776   7.304
10091SOL    HW234068   2.907   5.615   7.299
10092SOL     OW34069   2.366   5.636   7.326
10092SOL    HW134070   2.324   5.579   7.256
10092SOL    HW234071   2.300   5.705   7.358
10093SOL     OW34072   2.435   6.456   6.615
10093SOL    HW134073   2.479   6.545   6.606
10093SOL    HW234074   2.372   6.456   6.692
10094SOL     OW34075   3.222   6.448   6.631
10094SOL    HW134076   3.147   6.448   6.565
10094SOL    HW234077   3.259   6.356   6.640
10095SOL     OW34078   3.071   6.111   5.861
10095SOL    HW134079   3.084   6.027   5.915
10095SOL    HW234080   3.042   6.185   5.921
10096SOL     OW34081   2.169   5.799   6.817
10096SOL    HW134082   2.146   5.836   6.907
10096SOL    HW234083   2.139   5.704   6.811
10097SOL     OW34084   1.899   6.896   6.868
10097SOL    HW134085   1.952   6.847   6.936
10097SOL    HW234086   1.921   6.994   6.873
10098SOL     OW34087   2.594   6.220   6.650
10098SOL    HW134088   2.653   6.194   6.574
10098SOL    HW234089   2.566   6.316   6.639
10099SOL     OW34090   3.590   6.521   7.440
10099SOL    HW134091   3.544   6.514   7.351
10099SOL    HW234092   3.528   6.565   7.506
10100SOL     OW34093   2.169   5.649   6.204
10100SOL    HW134094   2.158   5.743   6.237
10100SOL    HW234095   2.164   5.586   6.281
10101SOL     OW34096   3.484   5.953   5.960
10101SOL    HW134097   3.486   5.877   6.024
10101SOL    HW234098   3.436   6.030   6.000
10102SOL     OW34099   2.885   6.352   6.552
10102SOL    HW134100   2.900   6.373   6.648
10102SOL    HW234101   2.855   6.257   6.543
10103SOL     OW34102   2.842   7.159   7.286
10103SOL    HW134103   2.822   7.203   7.198
10103SOL    HW234104   2.881   7.068   7.270
10104SOL     OW34105   3.721   7.104   7.191
10104SOL    HW134106   3.735   7.131   7.096
10104SOL    HW234107   3.804   7.126   7.244
10105SOL     OW34108   2.212   6.484   7.390
10105SOL    HW134109   2.288   6.528   7.438
10105SOL    HW234110   2.247   6.437   7.308
10106SOL     OW34111   3.402   5.860   5.711
10106SOL    HW134112   3.341   5.785   5.734
10106SOL    HW234113   3.424   5.912   5.794
10107SOL     OW34114   3.165   6.424   5.628
10107SOL    HW134115   3.199   6.331   5.643
10107SOL    HW234116   3.183   6.451   5.533
10108SOL     OW34117   2.930   6.919   6.435
10108SOL    HW134118   2.937   6.835   6.380
10108SOL    HW234119   2.992   6.988   6.399
10109SOL     OW34120   2.181   6.396   6.535
10109SOL    HW134121   2.274   6.432   6.540
10109SOL    HW234122   2.175   6.311   6.587
10110SOL     OW34123   2.201   6.095   6.592
10110SOL    HW134124   2.149   6.012   6.575
10110SOL    HW234125   2.278   6.100   6.528
10111SOL     OW34126   3.000   5.966   7.264
10111SOL    HW134127   2.955   6.029   7.328
10111SOL    HW234128   3.093   5.997   7.247
10112SOL     OW34129   3.022   5.793   7.063
10112SOL    HW134130   3.022   5.857   7.140
10112SOL    HW234131   3.050   5.841   6.980
10113SOL     OW34132   1.870   6.912   5.786
10113SOL    HW134133   1.777   6.933   5.755
10113SOL    HW234134   1.880   6.813   5.799
10114SOL     OW34135   1.950   7.387   6.513
10114SOL    HW134136   1.908   7.301   6.486
10114SOL    HW234137   2.044   7.390   6.479
10115SOL     OW34138   2.366   7.154   6.496
10115SOL    HW134139   2.432   7.228   6.505
10115SOL    HW234140   2.410   7.075   6.454
10116SOL     OW34141   2.864   6.382   6.824
10116SOL    HW134142   2.905   6.350   6.910
10116SOL    HW234143   2.768   6.355   6.821
10117SOL     OW34144   2.051   6.106   7.308
10117SOL    HW134145   2.110   6.066   7.238
10117SOL    HW234146   1.993   6.177   7.267
10118SOL     OW34147   3.231   6.536   7.246
10118SOL    HW134148   3.270   6.625   7.266
10118SOL    HW234149   3.241   6.516   7.149
10119SOL     OW34150   2.677   6.158   5.911
10119SOL    HW134151   2.684   6.069   5.865
10119SOL    HW234152   2.583   6.192   5.903
10120SOL     OW34153   3.519   6.190   6.792
10120SOL    HW134154   3.481   6.121   6.854
10120SOL    HW234155   3.601   6.154   6.748
10121SOL     OW34156   2.114   7.150   7.330
10121SOL    HW134157   2.084   7.207   7.406
10121SOL    HW234158   2.107   7.053   7.356
10122SOL     OW34159   2.533   6.050   6.855
10122SOL    HW134160   2.499   5.961   6.825
10122SOL    HW234161   2.559   6.104   6.775
10123SOL     OW34162   2.792   7.264   7.051
10123SOL    HW134163   2.768   7.246   6.956
10123SOL    HW234164   2.822   7.358   7.061
10124SOL     OW34165   2.335   6.086   5.777
10124SOL    HW134166   2.396   6.166   5.781
10124SOL    HW234167   2.240   6.117   5.784
10125SOL     OW34168   2.021   6.723   7.052
10125SOL    HW134169   2.043   6.662   7.128
10125SOL    HW234170   2.031   6.674   6.966
10126SOL     OW34171   3.209   6.645   6.820
10126SOL    HW134172   3.233   6.582   6.746
10126SOL    HW234173   3.119   6.685   6.802
10127SOL     OW34174   3.164   6.441   5.895
10127SOL    HW134175   3.078   6.410   5.937
10127SOL    HW234176   3.160   6.427   5.796
10128SOL     OW34177   3.621   7.333   6.740
10128SOL    HW134178   3.682   7.363   6.667
10128SOL    HW234179   3.583   7.244   6.718
10129SOL     OW34180   3.114   7.317   6.714
10129SOL    HW134181   3.198   7.322   6.660
10129SOL    HW234182   3.091   7.221   6.732
10130SOL     OW34183   1.945   6.844   6.608
10130SOL    HW134184   1.940   6.843   6.708
10130SOL    HW234185   1.862   6.803   6.570
10131SOL     OW34186   2.550   7.248   7.302
10131SOL    HW134187   2.494   7.329   7.311
10131SOL    HW234188   2.602   7.252   7.216
10132SOL     OW34189   3.588   5.721   6.109
10132SOL    HW134190   3.661   5.704   6.042
10132SOL    HW234191   3.557   5.634   6.147
10133SOL     OW34192   3.250   7.159   6.063
10133SOL    HW134193   3.317   7.171   5.989
10133SOL    HW234194   3.210   7.248   6.086
10134SOL     OW34195   1.992   7.380   7.437
10134SOL    HW134196   1.951   7.306   7.490
10134SOL    HW234197   2.056   7.431   7.495
10135SOL     OW34198   3.142   6.513   6.258
10135SOL    HW134199   3.202   6.432   6.260
10135SOL    HW234200   3.182   6.582   6.198
10136SOL     OW34201   2.692   6.859   7.008
10136SOL    HW134202   2.687   6.892   7.103
10136SOL    HW234203   2.606   6.878   6.962
10137SOL     OW34204   2.534   7.202   5.740
10137SOL    HW134205   2.543   7.212   5.641
10137SOL    HW234206   2.494   7.113   5.761
10138SOL     OW34207   3.512   7.306   6.980
10138SOL    HW134208   3.565   7.316   6.896
10138SOL    HW234209   3.485   7.396   7.014
10139SOL     OW34210   3.703   5.761   6.549
10139SOL    HW134211   3.742   5.676   6.513
10139SOL    HW234212   3.605   5.763   6.530
10140SOL     OW34213   3.056   7.198   5.617
10140SOL    HW134214   3.062   7.105   5.654
10140SOL    HW234215   2.997   7.198   5.537
10141SOL     OW34216   2.684   6.588   6.958
10141SOL    HW134217   2.724   6.587   6.866
10141SOL    HW234218   2.694   6.680   6.998
10142SOL     OW34219   2.778   6.496   5.877
10142SOL    HW134220   2.841   6.534   5.809
10142SOL    HW234221   2.818   6.413   5.916
10143SOL     OW34222   3.366   7.193   5.630
10143SOL    HW134223   3.274   7.230   5.637
10143SOL    HW234224   3.404   7.213   5.540
10144SOL     OW34225   2.234   6.874   7.076
10144SOL    HW134226   2.221   6.967   7.042
10144SOL    HW234227   2.150   6.822   7.063
10145SOL     OW34228   3.476   6.878   6.875
10145SOL    HW134229   3.536   6.881   6.955
10145SOL    HW234230   3.401   6.942   6.888
10146SOL     OW34231   2.901   6.684   6.282
10146SOL    HW134232   2.831   6.637   6.336
10146SOL    HW234233   2.960   6.616   6.239
10147SOL     OW34234   2.876   5.822   6.557
10147SOL    HW134235   2.868   5.786   6.464
10147SOL    HW234236   2.874   5.746   6.622
10148SOL     OW34237   2.452   7.073   6.077
10148SOL    HW134238   2.494   7.015   6.007
10148SOL    HW234239   2.408   7.152   6.033
10149SOL     OW34240   3.571   5.971   6.967
10149SOL    HW134241   3.644   6.040   6.971
10149SOL    HW234242   3.599   5.896   6.908
10150SOL     OW34243   2.117   6.934   5.876
10150SOL    HW134244   2.021   6.935   5.849
10150SOL    HW234245   2.129   6.987   5.960
10151SOL     OW34246   1.967   6.599   7.312
10151SOL    HW134247   1.890   6.566   7.366
10151SOL    HW234248   2.052   6.569   7.354
10152SOL     OW34249   2.534   5.789   7.075
10152SOL    HW134250   2.624   5.773   7.035
10152SOL    HW234251   2.542   5.794   7.174
10153SOL     OW34252   1.937   5.931   5.619
10153SOL    HW134253   1.845   5.903   5.590
10153SOL    HW234254   1.968   6.008   5.563
10154SOL     OW34255   3.302   6.442   6.984
10154SOL    HW134256   3.245   6.494   6.921
10154SOL    HW234257   3.398   6.454   6.960
10155SOL     OW34258   1.934   5.752   5.904
10155SOL    HW134259   1.917   5.835   5.850
10155SOL    HW234260   2.024   5.715   5.882
10156SOL     OW34261   3.045   6.921   5.705
10156SOL    HW134262   2.946   6.910   5.707
10156SOL    HW234263   3.079   6.936   5.798
10157SOL     OW34264   2.475   6.428   7.017
10157SOL    HW134265   2.531   6.509   7.000
10157SOL    HW234266   2.534   6.348   7.020
10158SOL     OW34267   3.355   7.353   6.545
10158SOL    HW134268   3.388   7.417   6.476
10158SOL    HW234269   3.421   7.347   6.620
10159SOL     OW34270   2.578   6.151   7.294
10159SOL    HW134271   2.597   6.216   7.368
10159SOL    HW234272   2.638   6.071   7.303
10160SOL     OW34273   3.312   6.806   7.219
10160SOL    HW134274   3.303   6.796   7.318
10160SOL    HW234275   3.408   6.799   7.193
10161SOL     OW34276   2.252   7.327   7.146
10161SOL    HW134277   2.161   7.368   7.144
10161SOL    HW234278   2.245   7.233   7.178
10162SOL     OW34279   3.536   6.469   6.840
10162SOL    HW134280   3.509   6.380   6.803
10162SOL    HW234281   3.537   6.537   6.767
10163SOL     OW34282   3.087   5.911   6.035
10163SOL    HW134283   3.152   5.837   6.024
10163SOL    HW234284   3.107   5.961   6.119
10164SOL     OW34285   2.456   6.331   6.238
10164SOL    HW134286   2.506   6.416   6.219
10164SOL    HW234287   2.368   6.333   6.190
10165SOL     OW34288   3.639   5.928   7.228
10165SOL    HW134289   3.622   5.959   7.134
10165SOL    HW234290   3.555   5.891   7.266
10166SOL     OW34291   3.592   6.520   7.103
10166SOL    HW134292   3.630   6.611   7.118
10166SOL    HW234293   3.584   6.503   7.004
10167SOL     OW34294   2.721   6.960   5.602
10167SOL    HW134295   2.675   6.975   5.690
10167SOL    HW234296   2.765   7.045   5.572
10168SOL     OW34297   2.523   7.376   6.539
10168SOL    HW134298   2.477   7.464   6.526
10168SOL    HW234299   2.622   7.388   6.532
10169SOL     OW34300   2.721   6.542   6.447
10169SOL    HW134301   2.775   6.473   6.495
10169SOL    HW234302   2.689   6.611   6.513
10170SOL     OW34303   2.945   6.570   5.673
10170SOL    HW134304   2.922   6.623   5.591
10170SOL    HW234305   3.026   6.514   5.654
10171SOL     OW34306   3.723   7.155   6.437
10171SOL    HW134307   3.652   7.143   6.367
10171SOL    HW234308   3.724   7.076   6.497
10172SOL     OW34309   2.083   6.900   7.430
10172SOL    HW134310   2.018   6.827   7.409
10172SOL    HW234311   2.087   6.914   7.528
10173SOL     OW34312   1.941   6.826   6.239
10173SOL    HW134313   1.940   6.779   6.327
10173SOL    HW234314   2.023   6.798   6.188
10174SOL     OW34315   2.534   6.977   7.210
10174SOL    HW134316   2.456   6.927   7.248
10174SOL    HW234317   2.531   7.072   7.241
10175SOL     OW34318   3.686   5.778   6.813
10175SOL    HW134319   3.682   5.688   6.857
10175SOL    HW234320   3.689   5.767   6.714
10176SOL     OW34321   2.290   6.010   6.106
10176SOL    HW134322   2.320   5.938   6.044
10176SOL    HW234323   2.251   5.970   6.189
10177SOL     OW34324   3.567   7.073   6.690
10177SOL    HW134325   3.474   7.048   6.663
10177SOL    HW234326   3.593   7.023   6.772
10178SOL     OW34327   2.179   6.133   6.866
10178SOL    HW134328   2.217   6.074   6.938
10178SOL    HW234329   2.219   6.107   6.778
10179SOL     OW34330   2.674   7.172   6.273
10179SOL    HW134331   2.706   7.182   6.179
10179SOL    HW234332   2.595   7.110   6.275
10180SOL     OW34333   3.286   5.800   6.698
10180SOL    HW134334   3.338   5.735   6.753
10180SOL    HW234335   3.237   5.863   6.759
10181SOL     OW34336   2.863   5.620   6.740
10181SOL    HW134337   2.800   5.548   6.709
10181SOL    HW234338   2.956   5.584   6.740
10182SOL     OW34339   2.632   6.916   5.887
10182SOL    HW134340   2.586   6.829   5.904
10182SOL    HW234341   2.723   6.913   5.928
10183SOL     OW34342   2.480   7.153   6.870
10183SOL    HW134343   2.475   7.235   6.927
10183SOL    HW234344   2.569   7.150   6.825
10184SOL     OW34345   3.214   5.638   5.754
10184SOL    HW134346   3.249   5.597   5.670
10184SOL    HW234347   3.124   5.600   5.774
10185SOL     OW34348   3.162   6.039   6.277
10185SOL    HW134349   3.103   6.119   6.281
10185SOL    HW234350   3.177   6.004   6.370
10186SOL     OW34351   3.455   5.807   6.468
10186SOL    HW134352   3.371   5.806   6.522
10186SOL    HW234353   3.457   5.890   6.412
10187SOL     OW34354   1.901   6.663   5.886
10187SOL    HW134355   2.000   6.652   5.877
10187SOL    HW234356   1.861   6.577   5.918
10188SOL     OW34357   2.737   7.232   5.923
10188SOL    HW134358   2.660   7.197   5.869
10188SOL    HW234359   2.705   7.303   5.985
10189SOL     OW34360   2.092   6.214   7.561
10189SOL    HW134361   1.999   6.212   7.598
10189SOL    HW234362   2.093   6.175   7.469
10190SOL     OW34363   2.087   5.861   8.444
10190SOL    HW134364   2.122   5.844   8.536
10190SOL    HW234365   1.999   5.816   8.432
10191SOL     OW34366   1.881   5.954   8.095
10191SOL    HW134367   1.799   5.997   8.134
10191SOL    HW234368   1.853   5.881   8.032
10192SOL     OW34369   2.431   6.861   8.613
10192SOL    HW134370   2.338   6.854   8.576
10192SOL    HW234371   2.442   6.950   8.657
10193SOL     OW34372   3.417   7.097   8.151
10193SOL    HW134373   3.360   7.081   8.232
10193SOL    HW234374   3.358   7.107   8.071
10194SOL     OW34375   2.997   6.289   8.165
10194SOL    HW134376   3.054   6.367   8.140
10194SOL    HW234377   2.937   6.315   8.241
10195SOL     OW34378   3.617   6.193   7.679
10195SOL    HW134379   3.605   6.180   7.580
10195SOL    HW234380   3.587   6.112   7.728
10196SOL     OW34381   2.630   6.730   8.471
10196SOL    HW134382   2.552   6.747   8.531
10196SOL    HW234383   2.664   6.817   8.435
10197SOL     OW34384   2.712   6.384   9.271
10197SOL    HW134385   2.708   6.460   9.336
10197SOL    HW234386   2.734   6.420   9.180
10198SOL     OW34387   2.547   6.598   8.113
10198SOL    HW134388   2.616   6.582   8.183
10198SOL    HW234389   2.474   6.655   8.151
10199SOL     OW34390   2.548   6.747   9.251
10199SOL    HW134391   2.608   6.826   9.265
10199SOL    HW234392   2.462   6.778   9.210
10200SOL     OW34393   2.197   7.021   8.509
10200SOL    HW134394   2.119   6.990   8.456
10200SOL    HW234395   2.255   7.079   8.452
10201SOL     OW34396   3.322   7.091   8.787
10201SOL    HW134397   3.346   7.185   8.813
10201SOL    HW234398   3.306   7.037   8.869
10202SOL     OW34399   2.300   5.978   8.947
10202SOL    HW134400   2.382   5.922   8.956
10202SOL    HW234401   2.219   5.920   8.951
10203SOL     OW34402   3.465   6.033   8.185
10203SOL    HW134403   3.391   6.079   8.135
10203SOL    HW234404   3.516   6.101   8.238
10204SOL     OW34405   2.093   7.299   7.931
10204SOL    HW134406   2.127   7.376   7.985
10204SOL    HW234407   2.137   7.299   7.841
10205SOL     OW34408   2.989   6.927   9.138
10205SOL    HW134409   3.036   6.927   9.226
10205SOL    HW234410   2.941   6.840   9.127
10206SOL     OW34411   2.092   7.020   7.986
10206SOL    HW134412   2.066   7.116   7.986
10206SOL    HW234413   2.021   6.966   8.031
10207SOL     OW34414   2.102   6.677   8.334
10207SOL    HW134415   2.116   6.593   8.386
10207SOL    HW234416   2.047   6.741   8.389
10208SOL     OW34417   2.482   7.372   8.887
10208SOL    HW134418   2.390   7.355   8.922
10208SOL    HW234419   2.510   7.464   8.913
10209SOL     OW34420   2.468   6.550   7.571
10209SOL    HW134421   2.475   6.634   7.517
10209SOL    HW234422   2.514   6.563   7.659
10210SOL     OW34423   3.456   5.700   8.928
10210SOL    HW134424   3.438   5.767   8.856
10210SOL    HW234425   3.453   5.746   9.017
10211SOL     OW34426   1.984   6.229   8.011
10211SOL    HW134427   1.939   6.141   8.028
10211SOL    HW234428   1.983   6.283   8.095
10212SOL     OW34429   3.704   7.353   7.807
10212SOL    HW134430   3.758   7.324   7.887
10212SOL    HW234431   3.734   7.443   7.778
10213SOL     OW34432   1.889   7.182   7.565
10213SOL    HW134433   1.870   7.086   7.586
10213SOL    HW234434   1.856   7.240   7.640
10214SOL     OW34435   3.551   6.508   8.060
10214SOL    HW134436   3.646   6.479   8.068
10214SOL    HW234437   3.543   6.573   7.985
10215SOL     OW34438   3.503   6.694   7.880
10215SOL    HW134439   3.589   6.696   7.828
10215SOL    HW234440   3.517   6.741   7.968
10216SOL     OW34441   1.975   6.323   9.045
10216SOL    HW134442   2.063   6.310   9.090
10216SOL    HW234443   1.962   6.420   9.023
10217SOL     OW34444   2.475   6.951   8.174
10217SOL    HW134445   2.426   6.864   8.183
10217SOL    HW234446   2.452   6.994   8.087
10218SOL     OW34447   3.155   6.814   8.871
10218SOL    HW134448   3.192   6.741   8.813
10218SOL    HW234449   3.207   6.819   8.956
10219SOL     OW34450   2.671   5.590   7.950
10219SOL    HW134451   2.711   5.681   7.941
10219SOL    HW234452   2.571   5.598   7.956
10220SOL     OW34453   2.059   6.562   8.712
10220SOL    HW134454   2.148   6.517   8.698
10220SOL    HW234455   1.986   6.497   8.693
10221SOL     OW34456   3.387   6.585   7.638
10221SOL    HW134457   3.324   6.509   7.651
10221SOL    HW234458   3.435   6.603   7.724
10222SOL     OW34459   3.049   7.378   9.064
10222SOL    HW134460   3.073   7.438   8.988
10222SOL    HW234461   3.056   7.283   9.034
10223SOL     OW34462   3.328   7.003   8.401
10223SOL    HW134463   3.269   7.009   8.481
10223SOL    HW234464   3.313   6.915   8.355
10224SOL     OW34465   3.529   7.300   8.020
10224SOL    HW134466   3.488   7.277   7.932
10224SOL    HW234467   3.511   7.226   8.085
10225SOL     OW34468   2.460   6.315   7.718
10225SOL    HW134469   2.484   6.384   7.650
10225SOL    HW234470   2.382   6.348   7.772
10226SOL     OW34471   3.143   5.931   8.392
10226SOL    HW134472   3.057   5.881   8.379
10226SOL    HW234473   3.205   5.877   8.448
10227SOL     OW34474   3.438   7.248   7.755
10227SOL    HW134475   3.527   7.294   7.758
10227SOL    HW234476   3.417   7.224   7.660
10228SOL     OW34477   2.669   6.191   8.913
10228SOL    HW134478   2.622   6.188   9.002
10228SOL    HW234479   2.618   6.136   8.847
10229SOL     OW34480   3.256   6.055   9.122
10229SOL    HW134481   3.236   6.098   9.210
10229SOL    HW234482   3.334   5.993   9.131
10230SOL     OW34483   2.835   6.476   9.020
10230SOL    HW134484   2.881   6.392   8.991
10230SOL    HW234485   2.779   6.510   8.945
10231SOL     OW34486   2.853   5.996   8.690
10231SOL    HW134487   2.776   6.030   8.744
10231SOL    HW234488   2.819   5.945   8.611
10232SOL     OW34489   2.903   6.287   7.877
10232SOL    HW134490   2.929   6.283   7.973
10232SOL    HW234491   2.818   6.236   7.863
10233SOL     OW34492   1.938   6.397   8.237
10233SOL    HW134493   2.037   6.385   8.246
10233SOL    HW234494   1.914   6.492   8.258
10234SOL     OW34495   1.992   7.407   9.019
10234SOL    HW134496   1.982   7.392   9.118
10234SOL    HW234497   1.906   7.443   8.983
10235SOL     OW34498   2.727   5.934   7.643
10235SOL    HW134499   2.786   5.997   7.594
10235SOL    HW234500   2.746   5.840   7.614
10236SOL     OW34501   3.581   6.171   9.279
10236SOL    HW134502   3.555   6.260   9.243
10236SOL    HW234503   3.579   6.103   9.206
10237SOL     OW34504   3.224   6.730   7.993
10237SOL    HW134505   3.307   6.701   7.945
10237SOL    HW234506   3.175   6.797   7.937
10238SOL     OW34507   2.412   5.782   8.333
10238SOL    HW134508   2.407   5.777   8.433
10238SOL    HW234509   2.414   5.878   8.304
10239SOL     OW34510   2.870   7.042   7.925
10239SOL    HW134511   2.824   7.114   7.873
10239SOL    HW234512   2.866   7.062   8.023
10240SOL     OW34513   2.213   7.387   8.301
10240SOL    HW134514   2.263   7.301   8.307
10240SOL    HW234515   2.278   7.464   8.298
10241SOL     OW34516   3.657   6.652   8.321
10241SOL    HW134517   3.595   6.637   8.245
10241SOL    HW234518   3.605   6.663   8.406
10242SOL     OW34519   3.089   7.136   8.954
10242SOL    HW134520   3.095   7.059   9.018
10242SOL    HW234521   3.037   7.110   8.874
10243SOL     OW34522   2.183   6.529   7.690
10243SOL    HW134523   2.265   6.568   7.648
10243SOL    HW234524   2.156   6.447   7.641
10244SOL     OW34525   3.320   6.321   8.176
10244SOL    HW134526   3.315   6.256   8.251
10244SOL    HW234527   3.400   6.380   8.189
10245SOL     OW34528   2.323   6.852   9.175
10245SOL    HW134529   2.273   6.853   9.089
10245SOL    HW234530   2.260   6.834   9.251
10246SOL     OW34531   2.973   7.362   7.685
10246SOL    HW134532   2.913   7.300   7.735
10246SOL    HW234533   3.004   7.318   7.600
10247SOL     OW34534   2.064   5.871   8.946
10247SOL    HW134535   1.984   5.931   8.933
10247SOL    HW234536   2.054   5.822   9.032
10248SOL     OW34537   3.494   6.963   7.529
10248SOL    HW134538   3.462   7.057   7.519
10248SOL    HW234539   3.418   6.900   7.517
10249SOL     OW34540   2.326   7.329   7.771
10249SOL    HW134541   2.359   7.368   7.857
10249SOL    HW234542   2.402   7.322   7.706
10250SOL     OW34543   3.262   5.693   7.874
10250SOL    HW134544   3.238   5.656   7.784
10250SOL    HW234545   3.361   5.709   7.878
10251SOL     OW34546   2.111   7.371   8.689
10251SOL    HW134547   2.168   7.306   8.739
10251SOL    HW234548   2.095   7.338   8.596
10252SOL     OW34549   2.802   7.284   8.352
10252SOL    HW134550   2.882   7.227   8.373
10252SOL    HW234551   2.753   7.244   8.275
10253SOL     OW34552   2.244   6.286   7.928
10253SOL    HW134553   2.289   6.196   7.925
10253SOL    HW234554   2.150   6.275   7.961
10254SOL     OW34555   3.409   5.808   9.177
10254SOL    HW134556   3.404   5.845   9.269
10254SOL    HW234557   3.337   5.739   9.165
10255SOL     OW34558   2.476   5.708   7.565
10255SOL    HW134559   2.574   5.686   7.572
10255SOL    HW234560   2.445   5.691   7.472
10256SOL     OW34561   2.643   5.850   9.197
10256SOL    HW134562   2.710   5.789   9.240
10256SOL    HW234563   2.570   5.869   9.262
10257SOL     OW34564   2.750   7.100   8.643
10257SOL    HW134565   2.727   7.075   8.549
10257SOL    HW234566   2.811   7.031   8.682
10258SOL     OW34567   3.213   6.176   8.881
10258SOL    HW134568   3.241   6.133   8.966
10258SOL    HW234569   3.238   6.272   8.882
10259SOL     OW34570   2.665   6.988   8.372
10259SOL    HW134571   2.755   7.002   8.330
10259SOL    HW234572   2.594   6.990   8.301
10260SOL     OW34573   2.784   6.089   8.347
10260SOL    HW134574   2.759   6.080   8.251
10260SOL    HW234575   2.832   6.007   8.378
10261SOL     OW34576   2.401   5.650   7.960
10261SOL    HW134577   2.320   5.651   8.018
10261SOL    HW234578   2.404   5.733   7.905
10262SOL     OW34579   3.296   6.774   7.489
10262SOL    HW134580   3.328   6.698   7.546
10262SOL    HW234581   3.204   6.801   7.519
10263SOL     OW34582   2.159   5.621   7.619
10263SOL    HW134583   2.208   5.705   7.598
10263SOL    HW234584   2.221   5.556   7.664
10264SOL     OW34585   2.797   5.822   7.928
10264SOL    HW134586   2.749   5.863   7.850
10264SOL    HW234587   2.896   5.820   7.909
10265SOL     OW34588   2.938   6.269   8.912
10265SOL    HW134589   2.858   6.208   8.915
10265SOL    HW234590   3.019   6.216   8.888
10266SOL     OW34591   3.089   7.156   8.241
10266SOL    HW134592   3.110   7.230   8.176
10266SOL    HW234593   3.157   7.156   8.314
10267SOL     OW34594   2.321   6.738   8.189
10267SOL    HW134595   2.250   6.711   8.254
10267SOL    HW234596   2.295   6.710   8.096
10268SOL     OW34597   3.133   7.383   8.039
10268SOL    HW134598   3.177   7.447   7.975
10268SOL    HW234599   3.083   7.435   8.109
10269SOL     OW34600   2.894   6.135   7.464
10269SOL    HW134601   2.853   6.217   7.425
10269SOL    HW234602   2.958   6.161   7.537
10270SOL     OW34603   1.940   6.142   8.834
10270SOL    HW134604   2.032   6.141   8.793
10270SOL    HW234605   1.934   6.216   8.901
10271SOL     OW34606   2.423   5.808   8.595
10271SOL    HW134607   2.461   5.724   8.632
10271SOL    HW234608   2.335   5.827   8.639
10272SOL     OW34609   2.728   6.040   8.090
10272SOL    HW134610   2.696   6.112   8.028
10272SOL    HW234611   2.752   5.959   8.037
10273SOL     OW34612   2.879   5.625   8.201
10273SOL    HW134613   2.807   5.630   8.132
10273SOL    HW234614   2.855   5.556   8.270
10274SOL     OW34615   3.291   6.759   8.315
10274SOL    HW134616   3.236   6.675   8.308
10274SOL    HW234617   3.317   6.788   8.223
10275SOL     OW34618   3.328   6.176   8.440
10275SOL    HW134619   3.298   6.081   8.447
10275SOL    HW234620   3.401   6.192   8.506
10276SOL     OW34621   3.719   6.419   7.825
10276SOL    HW134622   3.761   6.355   7.889
10276SOL    HW234623   3.681   6.368   7.747
10277SOL     OW34624   2.350   6.971   7.622
10277SOL    HW134625   2.263   6.956   7.669
10277SOL    HW234626   2.333   6.997   7.527
10278SOL     OW34627   3.526   6.866   8.105
10278SOL    HW134628   3.625   6.874   8.119
10278SOL    HW234629   3.481   6.950   8.136
10279SOL     OW34630   3.252   6.161   7.526
10279SOL    HW134631   3.198   6.140   7.607
10279SOL    HW234632   3.343   6.120   7.535
10280SOL     OW34633   2.389   5.842   7.776
10280SOL    HW134634   2.416   5.783   7.701
10280SOL    HW234635   2.389   5.937   7.745
10281SOL     OW34636   3.616   6.809   9.036
10281SOL    HW134637   3.707   6.770   9.023
10281SOL    HW234638   3.624   6.905   9.060
10282SOL     OW34639   2.926   6.933   8.788
10282SOL    HW134640   2.846   6.910   8.843
10282SOL    HW234641   3.009   6.907   8.837
10283SOL     OW34642   3.454   7.215   9.073
10283SOL    HW134643   3.481   7.249   8.983
10283SOL    HW234644   3.533   7.177   9.119
10284SOL     OW34645   2.973   6.781   8.548
10284SOL    HW134646   2.933   6.825   8.629
10284SOL    HW234647   2.932   6.818   8.465
10285SOL     OW34648   3.500   6.685   8.527
10285SOL    HW134649   3.505   6.766   8.586
10285SOL    HW234650   3.414   6.687   8.476
10286SOL     OW34651   2.777   5.675   8.850
10286SOL    HW134652   2.802   5.655   8.755
10286SOL    HW234653   2.849   5.731   8.892
10287SOL     OW34654   2.842   6.702   9.167
10287SOL    HW134655   2.743   6.708   9.177
10287SOL    HW234656   2.865   6.622   9.111
10288SOL     OW34657   2.567   6.636   7.816
10288SOL    HW134658   2.553   6.643   7.915
10288SOL    HW234659   2.651   6.585   7.798
10289SOL     OW34660   2.272   6.399   8.699
10289SOL    HW134661   2.358   6.411   8.749
10289SOL    HW234662   2.230   6.312   8.726
10290SOL     OW34663   3.136   5.972   8.710
10290SOL    HW134664   3.157   6.046   8.774
10290SOL    HW234665   3.047   5.989   8.667
10291SOL     OW34666   1.926   7.150   8.779
10291SOL    HW134667   1.880   7.232   8.745
10291SOL    HW234668   2.024   7.169   8.788
10292SOL     OW34669   2.229   6.686   7.949
10292SOL    HW134670   2.222   6.769   7.893
10292SOL    HW234671   2.233   6.606   7.889
10293SOL     OW34672   2.428   6.123   8.313
10293SOL    HW134673   2.440   6.189   8.239
10293SOL    HW234674   2.474   6.157   8.396
10294SOL     OW34675   3.114   6.934   7.836
10294SOL    HW134676   3.164   7.011   7.876
10294SOL    HW234677   3.019   6.936   7.868
10295SOL     OW34678   3.134   7.031   8.590
10295SOL    HW134679   3.181   7.044   8.677
10295SOL    HW234680   3.068   6.957   8.599
10296SOL     OW34681   3.444   6.225   7.920
10296SOL    HW134682   3.413   6.286   7.993
10296SOL    HW234683   3.494   6.277   7.851
10297SOL     OW34684   2.216   7.096   8.777
10297SOL    HW134685   2.195   7.052   8.690
10297SOL    HW234686   2.313   7.122   8.780
10298SOL     OW34687   2.264   6.337   9.046
10298SOL    HW134688   2.332   6.392   8.999
10298SOL    HW234689   2.304   6.249   9.073
10299SOL     OW34690   3.449   6.365   9.118
10299SOL    HW134691   3.357   6.403   9.113
10299SOL    HW234692   3.509   6.412   9.053
10300SOL     OW34693   2.875   5.691   9.218
10300SOL    HW134694   2.881   5.776   9.166
10300SOL    HW234695   2.907   5.615   9.161
10301SOL     OW34696   2.366   5.636   9.188
10301SOL    HW134697   2.324   5.579   9.118
10301SOL    HW234698   2.300   5.705   9.220
10302SOL     OW34699   2.435   6.456   8.477
10302SOL    HW134700   2.479   6.545   8.468
10302SOL    HW234701   2.372   6.456   8.554
10303SOL     OW34702   3.222   6.448   8.493
10303SOL    HW134703   3.147   6.448   8.427
10303SOL    HW234704   3.259   6.356   8.502
10304SOL     OW34705   3.071   6.111   7.723
10304SOL    HW134706   3.084   6.027   7.777
10304SOL    HW234707   3.042   6.185   7.783
10305SOL     OW34708   2.169   5.799   8.679
10305SOL    HW134709   2.146   5.836   8.769
10305SOL    HW234710   2.139   5.704   8.673
10306SOL     OW34711   1.899   6.896   8.730
10306SOL    HW134712   1.952   6.847   8.798
10306SOL    HW234713   1.921   6.994   8.735
10307SOL     OW34714   2.594   6.220   8.512
10307SOL    HW134715   2.653   6.194   8.436
10307SOL    HW234716   2.566   6.316   8.501
10308SOL     OW34717   3.590   6.521   9.302
10308SOL    HW134718   3.544   6.514   9.213
10308SOL    HW234719   3.528   6.565   9.368
10309SOL     OW34720   2.169   5.649   8.066
10309SOL    HW134721   2.158   5.743   8.099
10309SOL    HW234722   2.164   5.586   8.143
10310SOL     OW34723   3.484   5.953   7.822
10310SOL    HW134724   3.486   5.877   7.886
10310SOL    HW234725   3.436   6.030   7.862
10311SOL     OW34726   2.885   6.352   8.414
10311SOL    HW134727   2.900   6.373   8.510
10311SOL    HW234728   2.855   6.257   8.405
10312SOL     OW34729   2.842   7.159   9.148
10312SOL    HW134730   2.822   7.203   9.060
10312SOL    HW234731   2.881   7.068   9.132
10313SOL     OW34732   3.721   7.104   9.053
10313SOL    HW134733   3.735   7.131   8.958
10313SOL    HW234734   3.804   7.126   9.106
10314SOL     OW34735   2.212   6.484   9.252
10314SOL    HW134736   2.288   6.528   9.300
10314SOL    HW234737   2.247   6.437   9.170
10315SOL     OW34738   3.402   5.860   7.573
10315SOL    HW134739   3.341   5.785   7.596
10315SOL    HW234740   3.424   5.912   7.656
10316SOL     OW34741   3.165   6.424   7.490
10316SOL    HW134742   3.199   6.331   7.505
10316SOL    HW234743   3.183   6.451   7.395
10317SOL     OW34744   2.930   6.919   8.297
10317SOL    HW134745   2.937   6.835   8.242
10317SOL    HW234746   2.992   6.988   8.261
10318SOL     OW34747   2.181   6.396   8.397
10318SOL    HW134748   2.274   6.432   8.402
10318SOL    HW234749   2.175   6.311   8.449
10319SOL     OW34750   2.201   6.095   8.454
10319SOL    HW134751   2.149   6.012   8.437
10319SOL    HW234752   2.278   6.100   8.390
10320SOL     OW34753   3.000   5.966   9.126
10320SOL    HW134754   2.955   6.029   9.190
10320SOL    HW234755   3.093   5.997   9.109
10321SOL     OW34756   3.022   5.793   8.925
10321SOL    HW134757   3.022   5.857   9.002
10321SOL    HW234758   3.050   5.841   8.842
10322SOL     OW34759   1.870   6.912   7.648
10322SOL    HW134760   1.777   6.933   7.617
10322SOL    HW234761   1.880   6.813   7.661
10323SOL     OW34762   1.950   7.387   8.375
10323SOL    HW134763   1.908   7.301   8.348
10323SOL    HW234764   2.044   7.390   8.341
10324SOL     OW34765   2.366   7.154   8.358
10324SOL    HW134766   2.432   7.228   8.367
10324SOL    HW234767   2.410   7.075   8.316
10325SOL     OW34768   2.864   6.382   8.686
10325SOL    HW134769   2.905   6.350   8.772
10325SOL    HW234770   2.768   6.355   8.683
10326SOL     OW34771   1.902   6.130   8.562
10326SOL    HW134772   1.987   6.097   8.521
10326SOL    HW234773   1.915   6.145   8.660
10327SOL     OW34774   2.051   6.106   9.170
10327SOL    HW134775   2.110   6.066   9.100
10327SOL    HW234776   1.993   6.177   9.129
10328SOL     OW34777   3.231   6.536   9.108
10328SOL    HW134778   3.270   6.625   9.128
10328SOL    HW234779   3.241   6.516   9.011
10329SOL     OW34780   2.677   6.158   7.773
10329SOL    HW134781   2.684   6.069   7.727
10329SOL    HW234782   2.583   6.192   7.765
10330SOL     OW34783   3.519   6.190   8.654
10330SOL    HW134784   3.481   6.121   8.716
10330SOL    HW234785   3.601   6.154   8.610
10331SOL     OW34786   2.114   7.150   9.192
10331SOL    HW134787   2.084   7.207   9.268
10331SOL    HW234788   2.107   7.053   9.218
10332SOL     OW34789   2.533   6.050   8.717
10332SOL    HW134790   2.499   5.961   8.687
10332SOL    HW234791   2.559   6.104   8.637
10333SOL     OW34792   2.792   7.264   8.913
10333SOL    HW134793   2.768   7.246   8.818
10333SOL    HW234794   2.822   7.358   8.923
10334SOL     OW34795   2.335   6.086   7.639
10334SOL    HW134796   2.396   6.166   7.643
10334SOL    HW234797   2.240   6.117   7.646
10335SOL     OW34798   2.021   6.723   8.914
10335SOL    HW134799   2.043   6.662   8.990
10335SOL    HW234800   2.031   6.674   8.828
10336SOL     OW34801   3.209   6.645   8.682
10336SOL    HW134802   3.233   6.582   8.608
10336SOL    HW234803   3.119   6.685   8.664
10337SOL     OW34804   3.164   6.441   7.757
10337SOL    HW134805   3.078   6.410   7.799
10337SOL    HW234806   3.160   6.427   7.658
10338SOL     OW34807   3.621   7.333   8.602
10338SOL    HW134808   3.682   7.363   8.529
10338SOL    HW234809   3.583   7.244   8.580
10339SOL     OW34810   3.114   7.317   8.576
10339SOL    HW134811   3.198   7.322   8.522
10339SOL    HW234812   3.091   7.221   8.594
10340SOL     OW34813   1.945   6.844   8.470
10340SOL    HW134814   1.940   6.843   8.570
10340SOL    HW234815   1.862   6.803   8.432
10341SOL     OW34816   2.550   7.248   9.164
10341SOL    HW134817   2.494   7.329   9.173
10341SOL    HW234818   2.602   7.252   9.078
10342SOL     OW34819   3.588   5.721   7.971
10342SOL    HW134820   3.661   5.704   7.904
10342SOL    HW234821   3.557   5.634   8.009
10343SOL     OW34822   3.250   7.159   7.925
10343SOL    HW134823   3.317   7.171   7.851
10343SOL    HW234824   3.210   7.248   7.948
10344SOL     OW34825   1.992   7.380   9.299
10344SOL    HW134826   1.951   7.306   9.352
10344SOL    HW234827   2.056   7.431   9.357
10345SOL     OW34828   3.142   6.513   8.120
10345SOL    HW134829   3.202   6.432   8.122
10345SOL    HW234830   3.182   6.582   8.060
10346SOL     OW34831   2.692   6.859   8.870
10346SOL    HW134832   2.687   6.892   8.965
10346SOL    HW234833   2.606   6.878   8.824
10347SOL     OW34834   2.534   7.202   7.602
10347SOL    HW134835   2.543   7.212   7.503
10347SOL    HW234836   2.494   7.113   7.623
10348SOL     OW34837   3.512   7.306   8.842
10348SOL    HW134838   3.565   7.316   8.758
10348SOL    HW234839   3.485   7.396   8.876
10349SOL     OW34840   3.703   5.761   8.411
10349SOL    HW134841   3.742   5.676   8.375
10349SOL    HW234842   3.605   5.763   8.392
10350SOL     OW34843   2.125   5.912   8.168
10350SOL    HW134844   2.046   5.963   8.134
10350SOL    HW234845   2.116   5.897   8.266
10351SOL     OW34846   3.056   7.198   7.479
10351SOL    HW134847   3.062   7.105   7.516
10351SOL    HW234848   2.997   7.198   7.399
10352SOL     OW34849   2.684   6.588   8.820
10352SOL    HW134850   2.724   6.587   8.728
10352SOL    HW234851   2.694   6.680   8.860
10353SOL     OW34852   2.778   6.496   7.739
10353SOL    HW134853   2.841   6.534   7.671
10353SOL    HW234854   2.818   6.413   7.778
10354SOL     OW34855   3.366   7.193   7.492
10354SOL    HW134856   3.274   7.230   7.499
10354SOL    HW234857   3.404   7.213   7.402
10355SOL     OW34858   2.234   6.874   8.938
10355SOL    HW134859   2.221   6.967   8.904
10355SOL    HW234860   2.150   6.822   8.925
10356SOL     OW34861   3.476   6.878   8.737
10356SOL    HW134862   3.536   6.881   8.817
10356SOL    HW234863   3.401   6.942   8.750
10357SOL     OW34864   2.901   6.684   8.144
10357SOL    HW134865   2.831   6.637   8.198
10357SOL    HW234866   2.960   6.616   8.101
10358SOL     OW34867   2.876   5.822   8.419
10358SOL    HW134868   2.868   5.786   8.326
10358SOL    HW234869   2.874   5.746   8.484
10359SOL     OW34870   2.452   7.073   7.939
10359SOL    HW134871   2.494   7.015   7.869
10359SOL    HW234872   2.408   7.152   7.895
10360SOL     OW34873   3.571   5.971   8.829
10360SOL    HW134874   3.644   6.040   8.833
10360SOL    HW234875   3.599   5.896   8.770
10361SOL     OW34876   2.117   6.934   7.738
10361SOL    HW134877   2.021   6.935   7.711
10361SOL    HW234878   2.129   6.987   7.822
10362SOL     OW34879   1.967   6.599   9.174
10362SOL    HW134880   1.890   6.566   9.228
10362SOL    HW234881   2.052   6.569   9.216
10363SOL     OW34882   2.534   5.789   8.937
10363SOL    HW134883   2.624   5.773   8.897
10363SOL    HW234884   2.542   5.794   9.036
10364SOL     OW34885   1.937   5.931   7.481
10364SOL    HW134886   1.845   5.903   7.452
10364SOL    HW234887   1.968   6.008   7.425
10365SOL     OW34888   3.302   6.442   8.846
10365SOL    HW134889   3.245   6.494   8.783
10365SOL    HW234890   3.398   6.454   8.822
10366SOL     OW34891   1.934   5.752   7.766
10366SOL    HW134892   1.917   5.835   7.712
10366SOL    HW234893   2.024   5.715   7.744
10367SOL     OW34894   3.045   6.921   7.567
10367SOL    HW134895   2.946   6.910   7.569
10367SOL    HW234896   3.079   6.936   7.660
10368SOL     OW34897   2.475   6.428   8.879
10368SOL    HW134898   2.531   6.509   8.862
10368SOL    HW234899   2.534   6.348   8.882
10369SOL     OW34900   3.355   7.353   8.407
10369SOL    HW134901   3.388   7.417   8.338
10369SOL    HW234902   3.421   7.347   8.482
10370SOL     OW34903   2.578   6.151   9.156
10370SOL    HW134904   2.597   6.216   9.230
10370SOL    HW234905   2.638   6.071   9.165
10371SOL     OW34906   3.312   6.806   9.081
10371SOL    HW134907   3.303   6.796   9.180
10371SOL    HW234908   3.408   6.799   9.055
10372SOL     OW34909   2.252   7.327   9.008
10372SOL    HW134910   2.161   7.368   9.006
10372SOL    HW234911   2.245   7.233   9.040
10373SOL     OW34912   3.536   6.469   8.702
10373SOL    HW134913   3.509   6.380   8.665
10373SOL    HW234914   3.537   6.537   8.629
10374SOL     OW34915   3.087   5.911   7.897
10374SOL    HW134916   3.152   5.837   7.886
10374SOL    HW234917   3.107   5.961   7.981
10375SOL     OW34918   2.456   6.331   8.100
10375SOL    HW134919   2.506   6.416   8.081
10375SOL    HW234920   2.368   6.333   8.052
10376SOL     OW34921   3.639   5.928   9.090
10376SOL    HW134922   3.622   5.959   8.996
10376SOL    HW234923   3.555   5.891   9.128
10377SOL     OW34924   3.592   6.520   8.965
10377SOL    HW134925   3.630   6.611   8.980
10377SOL    HW234926   3.584   6.503   8.866
10378SOL     OW34927   2.721   6.960   7.464
10378SOL    HW134928   2.675   6.975   7.552
10378SOL    HW234929   2.765   7.045   7.434
10379SOL     OW34930   2.523   7.376   8.401
10379SOL    HW134931   2.477   7.464   8.388
10379SOL    HW234932   2.622   7.388   8.394
10380SOL     OW34933   2.721   6.542   8.309
10380SOL    HW134934   2.775   6.473   8.357
10380SOL    HW234935   2.689   6.611   8.375
10381SOL     OW34936   2.945   6.570   7.535
10381SOL    HW134937   2.922   6.623   7.453
10381SOL    HW234938   3.026   6.514   7.516
10382SOL     OW34939   3.723   7.155   8.299
10382SOL    HW134940   3.652   7.143   8.229
10382SOL    HW234941   3.724   7.076   8.359
10383SOL     OW34942   2.083   6.900   9.292
10383SOL    HW134943   2.018   6.827   9.271
10383SOL    HW234944   2.087   6.914   9.390
10384SOL     OW34945   1.941   6.826   8.101
10384SOL    HW134946   1.940   6.779   8.189
10384SOL    HW234947   2.023   6.798   8.050
10385SOL     OW34948   2.534   6.977   9.072
10385SOL    HW134949   2.456   6.927   9.110
10385SOL    HW234950   2.531   7.072   9.103
10386SOL     OW34951   3.686   5.778   8.675
10386SOL    HW134952   3.682   5.688   8.719
10386SOL    HW234953   3.689   5.767   8.576
10387SOL     OW34954   2.290   6.010   7.968
10387SOL    HW134955   2.320   5.938   7.906
10387SOL    HW234956   2.251   5.970   8.051
10388SOL     OW34957   3.567   7.073   8.552
10388SOL    HW134958   3.474   7.048   8.525
10388SOL    HW234959   3.593   7.023   8.634
10389SOL     OW34960   2.179   6.133   8.728
10389SOL    HW134961   2.217   6.074   8.800
10389SOL    HW234962   2.219   6.107   8.640
10390SOL     OW34963   2.674   7.172   8.135
10390SOL    HW134964   2.706   7.182   8.041
10390SOL    HW234965   2.595   7.110   8.137
10391SOL     OW34966   3.286   5.800   8.560
10391SOL    HW134967   3.338   5.735   8.615
10391SOL    HW234968   3.237   5.863   8.621
10392SOL     OW34969   2.863   5.620   8.602
10392SOL    HW134970   2.800   5.548   8.571
10392SOL    HW234971   2.956   5.584   8.602
10393SOL     OW34972   2.632   6.916   7.749
10393SOL    HW134973   2.586   6.829   7.766
10393SOL    HW234974   2.723   6.913   7.790
10394SOL     OW34975   2.480   7.153   8.732
10394SOL    HW134976   2.475   7.235   8.789
10394SOL    HW234977   2.569   7.150   8.687
10395SOL     OW34978   3.214   5.638   7.616
10395SOL    HW134979   3.249   5.597   7.532
10395SOL    HW234980   3.124   5.600   7.636
10396SOL     OW34981   3.162   6.039   8.139
10396SOL    HW134982   3.103   6.119   8.143
10396SOL    HW234983   3.177   6.004   8.232
10397SOL     OW34984   3.455   5.807   8.330
10397SOL    HW134985   3.371   5.806   8.384
10397SOL    HW234986   3.457   5.890   8.274
10398SOL     OW34987   1.901   6.663   7.748
10398SOL    HW134988   2.000   6.652   7.739
10398SOL    HW234989   1.861   6.577   7.780
10399SOL     OW34990   2.737   7.232   7.785
10399SOL    HW134991   2.660   7.197   7.731
10399SOL    HW234992   2.705   7.303   7.847
10400SOL     OW34993   2.092   6.214   9.423
10400SOL    HW134994   1.999   6.212   9.460
10400SOL    HW234995   2.093   6.175   9.331
10401SOL     OW34996   3.617   6.193   9.541
10401SOL    HW134997   3.605   6.180   9.442
10401SOL    HW234998   3.587   6.112   9.590
10402SOL     OW34999   2.093   7.299   9.793
10402SOL    HW135000   2.127   7.376   9.847
10402SOL    HW235001   2.137   7.299   9.703
10403SOL     OW35002   2.092   7.020   9.848
10403SOL    HW135003   2.066   7.116   9.848
10403SOL    HW235004   2.021   6.966   9.893
10404SOL     OW35005   2.468   6.550   9.433
10404SOL    HW135006   2.475   6.634   9.379
10404SOL    HW235007   2.514   6.563   9.521
10405SOL     OW35008   1.984   6.229   9.873
10405SOL    HW135009   1.939   6.141   9.890
10405SOL    HW235010   1.983   6.283   9.957
10406SOL     OW35011   3.704   7.353   9.669
10406SOL    HW135012   3.758   7.324   9.749
10406SOL    HW235013   3.734   7.443   9.640
10407SOL     OW35014   1.889   7.182   9.427
10407SOL    HW135015   1.870   7.086   9.448
10407SOL    HW235016   1.856   7.240   9.502
10408SOL     OW35017   3.551   6.508   9.922
10408SOL    HW135018   3.646   6.479   9.930
10408SOL    HW235019   3.543   6.573   9.847
10409SOL     OW35020   3.503   6.694   9.742
10409SOL    HW135021   3.589   6.696   9.690
10409SOL    HW235022   3.517   6.741   9.830
10410SOL     OW35023   2.475   6.951  10.036
10410SOL    HW135024   2.426   6.864  10.045
10410SOL    HW235025   2.452   6.994   9.949
10411SOL     OW35026   3.387   6.585   9.500
10411SOL    HW135027   3.324   6.509   9.513
10411SOL    HW235028   3.435   6.603   9.586
10412SOL     OW35029   2.460   6.315   9.580
10412SOL    HW135030   2.484   6.384   9.512
10412SOL    HW235031   2.382   6.348   9.634
10413SOL     OW35032   3.438   7.248   9.617
10413SOL    HW135033   3.527   7.294   9.620
10413SOL    HW235034   3.417   7.224   9.522
10414SOL     OW35035   2.903   6.287   9.739
10414SOL    HW135036   2.929   6.283   9.835
10414SOL    HW235037   2.818   6.236   9.725
10415SOL     OW35038   1.938   6.397  10.099
10415SOL    HW135039   2.037   6.385  10.108
10415SOL    HW235040   1.914   6.492  10.120
10416SOL     OW35041   2.727   5.934   9.505
10416SOL    HW135042   2.786   5.997   9.456
10416SOL    HW235043   2.746   5.840   9.476
10417SOL     OW35044   2.870   7.042   9.787
10417SOL    HW135045   2.824   7.114   9.735
10417SOL    HW235046   2.866   7.062   9.885
10418SOL     OW35047   2.213   7.387  10.163
10418SOL    HW135048   2.263   7.301  10.169
10418SOL    HW235049   2.278   7.464  10.160
10419SOL     OW35050   2.183   6.529   9.552
10419SOL    HW135051   2.265   6.568   9.510
10419SOL    HW235052   2.156   6.447   9.503
10420SOL     OW35053   2.973   7.362   9.547
10420SOL    HW135054   2.913   7.300   9.597
10420SOL    HW235055   3.004   7.318   9.462
10421SOL     OW35056   3.494   6.963   9.391
10421SOL    HW135057   3.462   7.057   9.381
10421SOL    HW235058   3.418   6.900   9.379
10422SOL     OW35059   2.326   7.329   9.633
10422SOL    HW135060   2.359   7.368   9.719
10422SOL    HW235061   2.402   7.322   9.568
10423SOL     OW35062   2.244   6.286   9.790
10423SOL    HW135063   2.289   6.196   9.787
10423SOL    HW235064   2.150   6.275   9.823
10424SOL     OW35065   2.476   5.708   9.427
10424SOL    HW135066   2.574   5.686   9.434
10424SOL    HW235067   2.445   5.691   9.334
10425SOL     OW35068   2.401   5.650   9.822
10425SOL    HW135069   2.320   5.651   9.880
10425SOL    HW235070   2.404   5.733   9.767
10426SOL     OW35071   3.296   6.774   9.351
10426SOL    HW135072   3.328   6.698   9.408
10426SOL    HW235073   3.204   6.801   9.381
10427SOL     OW35074   2.321   6.738  10.051
10427SOL    HW135075   2.250   6.711  10.116
10427SOL    HW235076   2.295   6.710   9.958
10428SOL     OW35077   3.133   7.383   9.901
10428SOL    HW135078   3.177   7.447   9.837
10428SOL    HW235079   3.083   7.435   9.971
10429SOL     OW35080   2.894   6.135   9.326
10429SOL    HW135081   2.853   6.217   9.287
10429SOL    HW235082   2.958   6.161   9.399
10430SOL     OW35083   2.728   6.040   9.952
10430SOL    HW135084   2.696   6.112   9.890
10430SOL    HW235085   2.752   5.959   9.899
10431SOL     OW35086   3.719   6.419   9.687
10431SOL    HW135087   3.761   6.355   9.751
10431SOL    HW235088   3.681   6.368   9.609
10432SOL     OW35089   2.350   6.971   9.484
10432SOL    HW135090   2.263   6.956   9.531
10432SOL    HW235091   2.333   6.997   9.389
10433SOL     OW35092   3.252   6.161   9.388
10433SOL    HW135093   3.198   6.140   9.469
10433SOL    HW235094   3.343   6.120   9.397
10434SOL     OW35095   2.389   5.842   9.638
10434SOL    HW135096   2.416   5.783   9.563
10434SOL    HW235097   2.389   5.937   9.607
10435SOL     OW35098   2.567   6.636   9.678
10435SOL    HW135099   2.553   6.643   9.777
10435SOL    HW235100   2.651   6.585   9.660
10436SOL     OW35101   2.229   6.686   9.811
10436SOL    HW135102   2.222   6.769   9.755
10436SOL    HW235103   2.233   6.606   9.751
10437SOL     OW35104   3.444   6.225   9.782
10437SOL    HW135105   3.413   6.286   9.855
10437SOL    HW235106   3.494   6.277   9.713
10438SOL     OW35107   3.071   6.111   9.585
10438SOL    HW135108   3.084   6.027   9.639
10438SOL    HW235109   3.042   6.185   9.645
10439SOL     OW35110   2.169   5.649   9.928
10439SOL    HW135111   2.158   5.743   9.961
10439SOL    HW235112   2.164   5.586  10.005
10440SOL     OW35113   3.484   5.953   9.684
10440SOL    HW135114   3.486   5.877   9.748
10440SOL    HW235115   3.436   6.030   9.724
10441SOL     OW35116   3.402   5.860   9.435
10441SOL    HW135117   3.341   5.785   9.458
10441SOL    HW235118   3.424   5.912   9.518
10442SOL     OW35119   3.165   6.424   9.352
10442SOL    HW135120   3.199   6.331   9.367
10442SOL    HW235121   3.183   6.451   9.257
10443SOL     OW35122   1.870   6.912   9.510
10443SOL    HW135123   1.777   6.933   9.479
10443SOL    HW235124   1.880   6.813   9.523
10444SOL     OW35125   2.677   6.158   9.635
10444SOL    HW135126   2.684   6.069   9.589
10444SOL    HW235127   2.583   6.192   9.627
10445SOL     OW35128   2.335   6.086   9.501
10445SOL    HW135129   2.396   6.166   9.505
10445SOL    HW235130   2.240   6.117   9.508
10446SOL     OW35131   3.164   6.441   9.619
10446SOL    HW135132   3.078   6.410   9.661
10446SOL    HW235133   3.160   6.427   9.520
10447SOL     OW35134   3.588   5.721   9.833
10447SOL    HW135135   3.661   5.704   9.766
10447SOL    HW235136   3.557   5.634   9.871
10448SOL     OW35137   3.250   7.159   9.787
10448SOL    HW135138   3.317   7.171   9.713
10448SOL    HW235139   3.210   7.248   9.810
10449SOL     OW35140   2.534   7.202   9.464
10449SOL    HW135141   2.543   7.212   9.365
10449SOL    HW235142   2.494   7.113   9.485
10450SOL     OW35143   3.056   7.198   9.341
10450SOL    HW135144   3.062   7.105   9.378
10450SOL    HW235145   2.997   7.198   9.261
10451SOL     OW35146   2.778   6.496   9.601
10451SOL    HW135147   2.841   6.534   9.533
10451SOL    HW235148   2.818   6.413   9.640
10452SOL     OW35149   3.366   7.193   9.354
10452SOL    HW135150   3.274   7.230   9.361
10452SOL    HW235151   3.404   7.213   9.264
10453SOL     OW35152   2.452   7.073   9.801
10453SOL    HW135153   2.494   7.015   9.731
10453SOL    HW235154   2.408   7.152   9.757
10454SOL     OW35155   2.117   6.934   9.600
10454SOL    HW135156   2.021   6.935   9.573
10454SOL    HW235157   2.129   6.987   9.684
10455SOL     OW35158   2.456   6.331   9.962
10455SOL    HW135159   2.506   6.416   9.943
10455SOL    HW235160   2.368   6.333   9.914
10456SOL     OW35161   2.721   6.960   9.326
10456SOL    HW135162   2.675   6.975   9.414
10456SOL    HW235163   2.765   7.045   9.296
10457SOL     OW35164   2.945   6.570   9.397
10457SOL    HW135165   2.922   6.623   9.315
10457SOL    HW235166   3.026   6.514   9.378
10458SOL     OW35167   1.941   6.826   9.963
10458SOL    HW135168   1.940   6.779  10.051
10458SOL    HW235169   2.023   6.798   9.912
10459SOL     OW35170   2.290   6.010   9.830
10459SOL    HW135171   2.320   5.938   9.768
10459SOL    HW235172   2.251   5.970   9.913
10460SOL     OW35173   2.632   6.916   9.611
10460SOL    HW135174   2.586   6.829   9.628
10460SOL    HW235175   2.723   6.913   9.652
10461SOL     OW35176   1.901   6.663   9.610
10461SOL    HW135177   2.000   6.652   9.601
10461SOL    HW235178   1.861   6.577   9.642
10462SOL     OW35179   2.737   7.232   9.647
10462SOL    HW135180   2.660   7.197   9.593
10462SOL    HW235181   2.705   7.303   9.709
10463SOL     OW35182   1.881   7.816   0.647
10463SOL    HW135183   1.799   7.859   0.686
10463SOL    HW235184   1.853   7.743   0.584
10464SOL     OW35185   2.431   8.723   1.165
10464SOL    HW135186   2.338   8.716   1.128
10464SOL    HW235187   2.442   8.812   1.209
10465SOL     OW35188   3.417   8.959   0.703
10465SOL    HW135189   3.360   8.943   0.784
10465SOL    HW235190   3.358   8.969   0.623
10466SOL     OW35191   2.997   8.151   0.717
10466SOL    HW135192   3.054   8.229   0.692
10466SOL    HW235193   2.937   8.177   0.793
10467SOL     OW35194   3.617   8.055   0.231
10467SOL    HW135195   3.605   8.042   0.132
10467SOL    HW235196   3.587   7.974   0.280
10468SOL     OW35197   2.630   8.592   1.023
10468SOL    HW135198   2.552   8.609   1.083
10468SOL    HW235199   2.664   8.679   0.987
10469SOL     OW35200   2.712   8.246   1.823
10469SOL    HW135201   2.708   8.322   1.888
10469SOL    HW235202   2.734   8.282   1.732
10470SOL     OW35203   2.547   8.460   0.665
10470SOL    HW135204   2.616   8.444   0.735
10470SOL    HW235205   2.474   8.517   0.703
10471SOL     OW35206   2.548   8.609   1.803
10471SOL    HW135207   2.608   8.688   1.817
10471SOL    HW235208   2.462   8.640   1.762
10472SOL     OW35209   2.197   8.883   1.061
10472SOL    HW135210   2.119   8.852   1.008
10472SOL    HW235211   2.255   8.941   1.004
10473SOL     OW35212   3.322   8.953   1.339
10473SOL    HW135213   3.346   9.047   1.365
10473SOL    HW235214   3.306   8.899   1.421
10474SOL     OW35215   2.300   7.840   1.499
10474SOL    HW135216   2.382   7.784   1.508
10474SOL    HW235217   2.219   7.782   1.503
10475SOL     OW35218   2.093   9.161   0.483
10475SOL    HW135219   2.127   9.238   0.537
10475SOL    HW235220   2.137   9.161   0.393
10476SOL     OW35221   2.989   8.789   1.690
10476SOL    HW135222   3.036   8.789   1.778
10476SOL    HW235223   2.941   8.702   1.679
10477SOL     OW35224   2.092   8.882   0.538
10477SOL    HW135225   2.066   8.978   0.538
10477SOL    HW235226   2.021   8.828   0.583
10478SOL     OW35227   2.102   8.539   0.886
10478SOL    HW135228   2.116   8.455   0.938
10478SOL    HW235229   2.047   8.603   0.941
10479SOL     OW35230   2.468   8.412   0.123
10479SOL    HW135231   2.475   8.496   0.069
10479SOL    HW235232   2.514   8.425   0.211
10480SOL     OW35233   3.456   7.562   1.480
10480SOL    HW135234   3.438   7.629   1.408
10480SOL    HW235235   3.453   7.608   1.569
10481SOL     OW35236   3.704   9.215   0.359
10481SOL    HW135237   3.758   9.186   0.439
10481SOL    HW235238   3.734   9.305   0.330
10482SOL     OW35239   1.889   9.044   0.117
10482SOL    HW135240   1.870   8.948   0.138
10482SOL    HW235241   1.856   9.102   0.192
10483SOL     OW35242   3.551   8.370   0.612
10483SOL    HW135243   3.646   8.341   0.620
10483SOL    HW235244   3.543   8.435   0.537
10484SOL     OW35245   3.503   8.556   0.432
10484SOL    HW135246   3.589   8.558   0.380
10484SOL    HW235247   3.517   8.603   0.520
10485SOL     OW35248   2.475   8.813   0.726
10485SOL    HW135249   2.426   8.726   0.735
10485SOL    HW235250   2.452   8.856   0.639
10486SOL     OW35251   2.671   7.452   0.502
10486SOL    HW135252   2.711   7.543   0.493
10486SOL    HW235253   2.571   7.460   0.508
10487SOL     OW35254   3.387   8.447   0.190
10487SOL    HW135255   3.324   8.371   0.203
10487SOL    HW235256   3.435   8.465   0.276
10488SOL     OW35257   3.049   9.240   1.616
10488SOL    HW135258   3.073   9.300   1.540
10488SOL    HW235259   3.056   9.145   1.586
10489SOL     OW35260   2.179   7.699   1.801
10489SOL    HW135261   2.250   7.770   1.807
10489SOL    HW235262   2.091   7.738   1.829
10490SOL     OW35263   3.328   8.865   0.953
10490SOL    HW135264   3.269   8.871   1.033
10490SOL    HW235265   3.313   8.777   0.907
10491SOL     OW35266   3.529   9.162   0.572
10491SOL    HW135267   3.488   9.139   0.484
10491SOL    HW235268   3.511   9.088   0.637
10492SOL     OW35269   2.460   8.177   0.270
10492SOL    HW135270   2.484   8.246   0.202
10492SOL    HW235271   2.382   8.210   0.324
10493SOL     OW35272   3.438   9.110   0.307
10493SOL    HW135273   3.527   9.156   0.310
10493SOL    HW235274   3.417   9.086   0.212
10494SOL     OW35275   2.669   8.053   1.465
10494SOL    HW135276   2.622   8.050   1.554
10494SOL    HW235277   2.618   7.998   1.399
10495SOL     OW35278   3.256   7.917   1.674
10495SOL    HW135279   3.236   7.960   1.762
10495SOL    HW235280   3.334   7.855   1.683
10496SOL     OW35281   2.835   8.338   1.572
10496SOL    HW135282   2.881   8.254   1.543
10496SOL    HW235283   2.779   8.372   1.497
10497SOL     OW35284   2.853   7.858   1.242
10497SOL    HW135285   2.776   7.892   1.296
10497SOL    HW235286   2.819   7.807   1.163
10498SOL     OW35287   2.903   8.149   0.429
10498SOL    HW135288   2.929   8.145   0.525
10498SOL    HW235289   2.818   8.098   0.415
10499SOL     OW35290   1.938   8.259   0.789
10499SOL    HW135291   2.037   8.247   0.798
10499SOL    HW235292   1.914   8.354   0.810
10500SOL     OW35293   1.992   9.269   1.571
10500SOL    HW135294   1.982   9.254   1.670
10500SOL    HW235295   1.906   9.305   1.535
10501SOL     OW35296   2.727   7.796   0.195
10501SOL    HW135297   2.786   7.859   0.146
10501SOL    HW235298   2.746   7.702   0.166
10502SOL     OW35299   3.581   8.033   1.831
10502SOL    HW135300   3.555   8.122   1.795
10502SOL    HW235301   3.579   7.965   1.758
10503SOL     OW35302   3.224   8.592   0.545
10503SOL    HW135303   3.307   8.563   0.497
10503SOL    HW235304   3.175   8.659   0.489
10504SOL     OW35305   2.412   7.644   0.885
10504SOL    HW135306   2.407   7.639   0.985
10504SOL    HW235307   2.414   7.740   0.856
10505SOL     OW35308   2.870   8.904   0.477
10505SOL    HW135309   2.824   8.976   0.425
10505SOL    HW235310   2.866   8.924   0.575
10506SOL     OW35311   2.213   9.249   0.853
10506SOL    HW135312   2.263   9.163   0.859
10506SOL    HW235313   2.278   9.326   0.850
10507SOL     OW35314   3.657   8.514   0.873
10507SOL    HW135315   3.595   8.499   0.797
10507SOL    HW235316   3.605   8.525   0.958
10508SOL     OW35317   3.089   8.998   1.506
10508SOL    HW135318   3.095   8.921   1.570
10508SOL    HW235319   3.037   8.972   1.426
10509SOL     OW35320   2.183   8.391   0.242
10509SOL    HW135321   2.265   8.430   0.200
10509SOL    HW235322   2.156   8.309   0.193
10510SOL     OW35323   3.320   8.183   0.728
10510SOL    HW135324   3.315   8.118   0.803
10510SOL    HW235325   3.400   8.242   0.741
10511SOL     OW35326   2.323   8.714   1.727
10511SOL    HW135327   2.273   8.715   1.641
10511SOL    HW235328   2.260   8.696   1.803
10512SOL     OW35329   2.064   7.733   1.498
10512SOL    HW135330   1.984   7.793   1.485
10512SOL    HW235331   2.054   7.684   1.584
10513SOL     OW35332   3.494   8.825   0.081
10513SOL    HW135333   3.462   8.919   0.071
10513SOL    HW235334   3.418   8.762   0.069
10514SOL     OW35335   2.326   9.191   0.323
10514SOL    HW135336   2.359   9.230   0.409
10514SOL    HW235337   2.402   9.184   0.258
10515SOL     OW35338   3.262   7.555   0.426
10515SOL    HW135339   3.238   7.518   0.336
10515SOL    HW235340   3.361   7.571   0.430
10516SOL     OW35341   2.111   9.233   1.241
10516SOL    HW135342   2.168   9.168   1.291
10516SOL    HW235343   2.095   9.200   1.148
10517SOL     OW35344   2.802   9.146   0.904
10517SOL    HW135345   2.882   9.089   0.925
10517SOL    HW235346   2.753   9.106   0.827
10518SOL     OW35347   3.409   7.670   1.729
10518SOL    HW135348   3.404   7.707   1.821
10518SOL    HW235349   3.337   7.601   1.717
10519SOL     OW35350   2.476   7.570   0.117
10519SOL    HW135351   2.574   7.548   0.124
10519SOL    HW235352   2.445   7.553   0.024
10520SOL     OW35353   2.643   7.712   1.749
10520SOL    HW135354   2.710   7.651   1.792
10520SOL    HW235355   2.570   7.731   1.814
10521SOL     OW35356   2.750   8.962   1.195
10521SOL    HW135357   2.727   8.937   1.101
10521SOL    HW235358   2.811   8.893   1.234
10522SOL     OW35359   3.213   8.038   1.433
10522SOL    HW135360   3.241   7.995   1.518
10522SOL    HW235361   3.238   8.134   1.434
10523SOL     OW35362   2.665   8.850   0.924
10523SOL    HW135363   2.755   8.864   0.882
10523SOL    HW235364   2.594   8.852   0.853
10524SOL     OW35365   2.784   7.951   0.899
10524SOL    HW135366   2.759   7.942   0.803
10524SOL    HW235367   2.832   7.869   0.930
10525SOL     OW35368   2.401   7.512   0.512
10525SOL    HW135369   2.320   7.513   0.570
10525SOL    HW235370   2.404   7.595   0.457
10526SOL     OW35371   3.296   8.636   0.041
10526SOL    HW135372   3.328   8.560   0.098
10526SOL    HW235373   3.204   8.663   0.071
10527SOL     OW35374   2.797   7.684   0.480
10527SOL    HW135375   2.749   7.725   0.402
10527SOL    HW235376   2.896   7.682   0.461
10528SOL     OW35377   2.938   8.131   1.464
10528SOL    HW135378   2.858   8.070   1.467
10528SOL    HW235379   3.019   8.078   1.440
10529SOL     OW35380   3.089   9.018   0.793
10529SOL    HW135381   3.110   9.092   0.728
10529SOL    HW235382   3.157   9.018   0.866
10530SOL     OW35383   2.321   8.600   0.741
10530SOL    HW135384   2.250   8.573   0.806
10530SOL    HW235385   2.295   8.572   0.648
10531SOL     OW35386   3.133   9.245   0.591
10531SOL    HW135387   3.177   9.309   0.527
10531SOL    HW235388   3.083   9.297   0.661
10532SOL     OW35389   2.894   7.997   0.016
10532SOL    HW135390   2.853   8.079  -0.023
10532SOL    HW235391   2.958   8.023   0.089
10533SOL     OW35392   1.940   8.004   1.386
10533SOL    HW135393   2.032   8.003   1.345
10533SOL    HW235394   1.934   8.078   1.453
10534SOL     OW35395   2.423   7.670   1.147
10534SOL    HW135396   2.461   7.586   1.184
10534SOL    HW235397   2.335   7.689   1.191
10535SOL     OW35398   2.728   7.902   0.642
10535SOL    HW135399   2.696   7.974   0.580
10535SOL    HW235400   2.752   7.821   0.589
10536SOL     OW35401   2.879   7.487   0.753
10536SOL    HW135402   2.807   7.492   0.684
10536SOL    HW235403   2.855   7.418   0.822
10537SOL     OW35404   3.719   8.281   0.377
10537SOL    HW135405   3.761   8.217   0.441
10537SOL    HW235406   3.681   8.230   0.299
10538SOL     OW35407   2.350   8.833   0.174
10538SOL    HW135408   2.263   8.818   0.221
10538SOL    HW235409   2.333   8.859   0.079
10539SOL     OW35410   3.526   8.728   0.657
10539SOL    HW135411   3.625   8.736   0.671
10539SOL    HW235412   3.481   8.812   0.688
10540SOL     OW35413   3.252   8.023   0.078
10540SOL    HW135414   3.198   8.002   0.159
10540SOL    HW235415   3.343   7.982   0.087
10541SOL     OW35416   2.389   7.704   0.328
10541SOL    HW135417   2.416   7.645   0.253
10541SOL    HW235418   2.389   7.799   0.297
10542SOL     OW35419   3.616   8.671   1.588
10542SOL    HW135420   3.707   8.632   1.575
10542SOL    HW235421   3.624   8.767   1.612
10543SOL     OW35422   2.926   8.795   1.340
10543SOL    HW135423   2.846   8.772   1.395
10543SOL    HW235424   3.009   8.769   1.389
10544SOL     OW35425   3.454   9.077   1.625
10544SOL    HW135426   3.481   9.111   1.535
10544SOL    HW235427   3.533   9.039   1.671
10545SOL     OW35428   2.777   7.537   1.402
10545SOL    HW135429   2.802   7.517   1.307
10545SOL    HW235430   2.849   7.593   1.444
10546SOL     OW35431   2.842   8.564   1.719
10546SOL    HW135432   2.743   8.570   1.729
10546SOL    HW235433   2.865   8.484   1.663
10547SOL     OW35434   2.567   8.498   0.368
10547SOL    HW135435   2.553   8.505   0.467
10547SOL    HW235436   2.651   8.447   0.350
10548SOL     OW35437   3.136   7.834   1.262
10548SOL    HW135438   3.157   7.908   1.326
10548SOL    HW235439   3.047   7.851   1.219
10549SOL     OW35440   1.926   9.012   1.331
10549SOL    HW135441   1.880   9.094   1.297
10549SOL    HW235442   2.024   9.031   1.340
10550SOL     OW35443   2.229   8.548   0.501
10550SOL    HW135444   2.222   8.631   0.445
10550SOL    HW235445   2.233   8.468   0.441
10551SOL     OW35446   2.428   7.985   0.865
10551SOL    HW135447   2.440   8.051   0.791
10551SOL    HW235448   2.474   8.019   0.948
10552SOL     OW35449   3.114   8.796   0.388
10552SOL    HW135450   3.164   8.873   0.428
10552SOL    HW235451   3.019   8.798   0.420
10553SOL     OW35452   3.134   8.893   1.142
10553SOL    HW135453   3.181   8.906   1.229
10553SOL    HW235454   3.068   8.819   1.151
10554SOL     OW35455   3.444   8.087   0.472
10554SOL    HW135456   3.413   8.148   0.545
10554SOL    HW235457   3.494   8.139   0.403
10555SOL     OW35458   2.216   8.958   1.329
10555SOL    HW135459   2.195   8.914   1.242
10555SOL    HW235460   2.313   8.984   1.332
10556SOL     OW35461   2.264   8.199   1.598
10556SOL    HW135462   2.332   8.254   1.551
10556SOL    HW235463   2.304   8.111   1.625
10557SOL     OW35464   3.449   8.227   1.670
10557SOL    HW135465   3.357   8.265   1.665
10557SOL    HW235466   3.509   8.274   1.605
10558SOL     OW35467   2.875   7.553   1.770
10558SOL    HW135468   2.881   7.638   1.718
10558SOL    HW235469   2.907   7.477   1.713
10559SOL     OW35470   2.366   7.498   1.740
10559SOL    HW135471   2.324   7.441   1.670
10559SOL    HW235472   2.300   7.567   1.772
10560SOL     OW35473   3.071   7.973   0.275
10560SOL    HW135474   3.084   7.889   0.329
10560SOL    HW235475   3.042   8.047   0.335
10561SOL     OW35476   1.899   8.758   1.282
10561SOL    HW135477   1.952   8.709   1.350
10561SOL    HW235478   1.921   8.856   1.287
10562SOL     OW35479   2.594   8.082   1.064
10562SOL    HW135480   2.653   8.056   0.988
10562SOL    HW235481   2.566   8.178   1.053
10563SOL     OW35482   3.590   8.383   1.854
10563SOL    HW135483   3.544   8.376   1.765
10563SOL    HW235484   3.528   8.427   1.920
10564SOL     OW35485   2.169   7.511   0.618
10564SOL    HW135486   2.158   7.605   0.651
10564SOL    HW235487   2.164   7.448   0.695
10565SOL     OW35488   3.484   7.815   0.374
10565SOL    HW135489   3.486   7.739   0.438
10565SOL    HW235490   3.436   7.892   0.414
10566SOL     OW35491   2.885   8.214   0.966
10566SOL    HW135492   2.900   8.235   1.062
10566SOL    HW235493   2.855   8.119   0.957
10567SOL     OW35494   2.842   9.021   1.700
10567SOL    HW135495   2.822   9.065   1.612
10567SOL    HW235496   2.881   8.930   1.684
10568SOL     OW35497   2.212   8.346   1.804
10568SOL    HW135498   2.288   8.390   1.852
10568SOL    HW235499   2.247   8.299   1.722
10569SOL     OW35500   3.402   7.722   0.125
10569SOL    HW135501   3.341   7.647   0.148
10569SOL    HW235502   3.424   7.774   0.208
10570SOL     OW35503   3.165   8.286   0.042
10570SOL    HW135504   3.199   8.193   0.057
10570SOL    HW235505   3.183   8.313  -0.053
10571SOL     OW35506   2.930   8.781   0.849
10571SOL    HW135507   2.937   8.697   0.794
10571SOL    HW235508   2.992   8.850   0.813
10572SOL     OW35509   2.181   8.258   0.949
10572SOL    HW135510   2.274   8.294   0.954
10572SOL    HW235511   2.175   8.173   1.001
10573SOL     OW35512   3.000   7.828   1.678
10573SOL    HW135513   2.955   7.891   1.742
10573SOL    HW235514   3.093   7.859   1.661
10574SOL     OW35515   3.022   7.655   1.477
10574SOL    HW135516   3.022   7.719   1.554
10574SOL    HW235517   3.050   7.703   1.394
10575SOL     OW35518   1.870   8.774   0.200
10575SOL    HW135519   1.777   8.795   0.169
10575SOL    HW235520   1.880   8.675   0.213
10576SOL     OW35521   1.950   9.249   0.927
10576SOL    HW135522   1.908   9.163   0.900
10576SOL    HW235523   2.044   9.252   0.893
10577SOL     OW35524   2.366   9.016   0.910
10577SOL    HW135525   2.432   9.090   0.919
10577SOL    HW235526   2.410   8.937   0.868
10578SOL     OW35527   2.864   8.244   1.238
10578SOL    HW135528   2.905   8.212   1.324
10578SOL    HW235529   2.768   8.217   1.235
10579SOL     OW35530   2.051   7.968   1.722
10579SOL    HW135531   2.110   7.928   1.652
10579SOL    HW235532   1.993   8.039   1.681
10580SOL     OW35533   3.231   8.398   1.660
10580SOL    HW135534   3.270   8.487   1.680
10580SOL    HW235535   3.241   8.378   1.563
10581SOL     OW35536   2.677   8.020   0.325
10581SOL    HW135537   2.684   7.931   0.279
10581SOL    HW235538   2.583   8.054   0.317
10582SOL     OW35539   3.519   8.052   1.206
10582SOL    HW135540   3.481   7.983   1.268
10582SOL    HW235541   3.601   8.016   1.162
10583SOL     OW35542   2.114   9.012   1.744
10583SOL    HW135543   2.084   9.069   1.820
10583SOL    HW235544   2.107   8.915   1.770
10584SOL     OW35545   2.533   7.912   1.269
10584SOL    HW135546   2.499   7.823   1.239
10584SOL    HW235547   2.559   7.966   1.189
10585SOL     OW35548   2.792   9.126   1.465
10585SOL    HW135549   2.768   9.108   1.370
10585SOL    HW235550   2.822   9.220   1.475
10586SOL     OW35551   2.335   7.948   0.191
10586SOL    HW135552   2.396   8.028   0.195
10586SOL    HW235553   2.240   7.979   0.198
10587SOL     OW35554   2.021   8.585   1.466
10587SOL    HW135555   2.043   8.524   1.542
10587SOL    HW235556   2.031   8.536   1.380
10588SOL     OW35557   3.164   8.303   0.309
10588SOL    HW135558   3.078   8.272   0.351
10588SOL    HW235559   3.160   8.289   0.210
10589SOL     OW35560   3.621   9.195   1.154
10589SOL    HW135561   3.682   9.225   1.081
10589SOL    HW235562   3.583   9.106   1.132
10590SOL     OW35563   3.114   9.179   1.128
10590SOL    HW135564   3.198   9.184   1.074
10590SOL    HW235565   3.091   9.083   1.146
10591SOL     OW35566   1.945   8.706   1.022
10591SOL    HW135567   1.940   8.705   1.122
10591SOL    HW235568   1.862   8.665   0.984
10592SOL     OW35569   2.765   7.534   0.133
10592SOL    HW135570   2.816   7.535   0.047
10592SOL    HW235571   2.821   7.492   0.204
10593SOL     OW35572   3.588   7.583   0.523
10593SOL    HW135573   3.661   7.566   0.456
10593SOL    HW235574   3.557   7.496   0.561
10594SOL     OW35575   3.250   9.021   0.477
10594SOL    HW135576   3.317   9.033   0.403
10594SOL    HW235577   3.210   9.110   0.500
10595SOL     OW35578   1.992   9.242   1.851
10595SOL    HW135579   1.951   9.168   1.904
10595SOL    HW235580   2.056   9.293   1.909
10596SOL     OW35581   3.142   8.375   0.672
10596SOL    HW135582   3.202   8.294   0.674
10596SOL    HW235583   3.182   8.444   0.612
10597SOL     OW35584   2.692   8.721   1.422
10597SOL    HW135585   2.687   8.754   1.517
10597SOL    HW235586   2.606   8.740   1.376
10598SOL     OW35587   2.534   9.064   0.154
10598SOL    HW135588   2.543   9.074   0.055
10598SOL    HW235589   2.494   8.975   0.175
10599SOL     OW35590   3.512   9.168   1.394
10599SOL    HW135591   3.565   9.178   1.310
10599SOL    HW235592   3.485   9.258   1.428
10600SOL     OW35593   3.703   7.623   0.963
10600SOL    HW135594   3.742   7.538   0.927
10600SOL    HW235595   3.605   7.625   0.944
10601SOL     OW35596   2.125   7.774   0.720
10601SOL    HW135597   2.046   7.825   0.686
10601SOL    HW235598   2.116   7.759   0.818
10602SOL     OW35599   3.056   9.060   0.031
10602SOL    HW135600   3.062   8.967   0.068
10602SOL    HW235601   2.997   9.060  -0.049
10603SOL     OW35602   2.684   8.450   1.372
10603SOL    HW135603   2.724   8.449   1.280
10603SOL    HW235604   2.694   8.542   1.412
10604SOL     OW35605   2.778   8.358   0.291
10604SOL    HW135606   2.841   8.396   0.223
10604SOL    HW235607   2.818   8.275   0.330
10605SOL     OW35608   3.366   9.055   0.044
10605SOL    HW135609   3.274   9.092   0.051
10605SOL    HW235610   3.404   9.075  -0.046
10606SOL     OW35611   2.234   8.736   1.490
10606SOL    HW135612   2.221   8.829   1.456
10606SOL    HW235613   2.150   8.684   1.477
10607SOL     OW35614   3.476   8.740   1.289
10607SOL    HW135615   3.536   8.743   1.369
10607SOL    HW235616   3.401   8.804   1.302
10608SOL     OW35617   2.901   8.546   0.696
10608SOL    HW135618   2.831   8.499   0.750
10608SOL    HW235619   2.960   8.478   0.653
10609SOL     OW35620   2.876   7.684   0.971
10609SOL    HW135621   2.868   7.648   0.878
10609SOL    HW235622   2.874   7.608   1.036
10610SOL     OW35623   2.452   8.935   0.491
10610SOL    HW135624   2.494   8.877   0.421
10610SOL    HW235625   2.408   9.014   0.447
10611SOL     OW35626   3.571   7.833   1.381
10611SOL    HW135627   3.644   7.902   1.385
10611SOL    HW235628   3.599   7.758   1.322
10612SOL     OW35629   2.117   8.796   0.290
10612SOL    HW135630   2.021   8.797   0.263
10612SOL    HW235631   2.129   8.849   0.374
10613SOL     OW35632   1.967   8.461   1.726
10613SOL    HW135633   1.890   8.428   1.780
10613SOL    HW235634   2.052   8.431   1.768
10614SOL     OW35635   2.534   7.651   1.489
10614SOL    HW135636   2.624   7.635   1.449
10614SOL    HW235637   2.542   7.656   1.588
10615SOL     OW35638   1.937   7.793   0.033
10615SOL    HW135639   1.845   7.765   0.004
10615SOL    HW235640   1.968   7.870  -0.023
10616SOL     OW35641   3.302   8.304   1.398
10616SOL    HW135642   3.245   8.356   1.335
10616SOL    HW235643   3.398   8.316   1.374
10617SOL     OW35644   1.934   7.614   0.318
10617SOL    HW135645   1.917   7.697   0.264
10617SOL    HW235646   2.024   7.577   0.296
10618SOL     OW35647   3.045   8.783   0.119
10618SOL    HW135648   2.946   8.772   0.121
10618SOL    HW235649   3.079   8.798   0.212
10619SOL     OW35650   3.355   9.215   0.959
10619SOL    HW135651   3.388   9.279   0.890
10619SOL    HW235652   3.421   9.209   1.034
10620SOL     OW35653   2.578   8.013   1.708
10620SOL    HW135654   2.597   8.078   1.782
10620SOL    HW235655   2.638   7.933   1.717
10621SOL     OW35656   3.312   8.668   1.633
10621SOL    HW135657   3.303   8.658   1.732
10621SOL    HW235658   3.408   8.661   1.607
10622SOL     OW35659   2.252   9.189   1.560
10622SOL    HW135660   2.161   9.230   1.558
10622SOL    HW235661   2.245   9.095   1.592
10623SOL     OW35662   3.536   8.331   1.254
10623SOL    HW135663   3.509   8.242   1.217
10623SOL    HW235664   3.537   8.399   1.181
10624SOL     OW35665   2.456   8.193   0.652
10624SOL    HW135666   2.506   8.278   0.633
10624SOL    HW235667   2.368   8.195   0.604
10625SOL     OW35668   3.639   7.790   1.642
10625SOL    HW135669   3.622   7.821   1.548
10625SOL    HW235670   3.555   7.753   1.680
10626SOL     OW35671   3.592   8.382   1.517
10626SOL    HW135672   3.630   8.473   1.532
10626SOL    HW235673   3.584   8.365   1.418
10627SOL     OW35674   2.721   8.822   0.016
10627SOL    HW135675   2.675   8.837   0.104
10627SOL    HW235676   2.765   8.907  -0.014
10628SOL     OW35677   2.523   9.238   0.953
10628SOL    HW135678   2.477   9.326   0.940
10628SOL    HW235679   2.622   9.250   0.946
10629SOL     OW35680   2.721   8.404   0.861
10629SOL    HW135681   2.775   8.335   0.909
10629SOL    HW235682   2.689   8.473   0.927
10630SOL     OW35683   2.945   8.432   0.087
10630SOL    HW135684   2.922   8.485   0.005
10630SOL    HW235685   3.026   8.376   0.068
10631SOL     OW35686   3.723   9.017   0.851
10631SOL    HW135687   3.652   9.005   0.781
10631SOL    HW235688   3.724   8.938   0.911
10632SOL     OW35689   2.083   8.762   1.844
10632SOL    HW135690   2.018   8.689   1.823
10632SOL    HW235691   2.087   8.776   1.942
10633SOL     OW35692   1.941   8.688   0.653
10633SOL    HW135693   1.940   8.641   0.741
10633SOL    HW235694   2.023   8.660   0.602
10634SOL     OW35695   2.534   8.839   1.624
10634SOL    HW135696   2.456   8.789   1.662
10634SOL    HW235697   2.531   8.934   1.655
10635SOL     OW35698   3.686   7.640   1.227
10635SOL    HW135699   3.682   7.550   1.271
10635SOL    HW235700   3.689   7.629   1.128
10636SOL     OW35701   2.290   7.872   0.520
10636SOL    HW135702   2.320   7.800   0.458
10636SOL    HW235703   2.251   7.832   0.603
10637SOL     OW35704   3.567   8.935   1.104
10637SOL    HW135705   3.474   8.910   1.077
10637SOL    HW235706   3.593   8.885   1.186
10638SOL     OW35707   2.674   9.034   0.687
10638SOL    HW135708   2.706   9.044   0.593
10638SOL    HW235709   2.595   8.972   0.689
10639SOL     OW35710   3.286   7.662   1.112
10639SOL    HW135711   3.338   7.597   1.167
10639SOL    HW235712   3.237   7.725   1.173
10640SOL     OW35713   2.863   7.482   1.154
10640SOL    HW135714   2.800   7.410   1.123
10640SOL    HW235715   2.956   7.446   1.154
10641SOL     OW35716   2.632   8.778   0.301
10641SOL    HW135717   2.586   8.691   0.318
10641SOL    HW235718   2.723   8.775   0.342
10642SOL     OW35719   2.480   9.015   1.284
10642SOL    HW135720   2.475   9.097   1.341
10642SOL    HW235721   2.569   9.012   1.239
10643SOL     OW35722   3.214   7.500   0.168
10643SOL    HW135723   3.249   7.459   0.084
10643SOL    HW235724   3.124   7.462   0.188
10644SOL     OW35725   2.737   9.094   0.337
10644SOL    HW135726   2.660   9.059   0.283
10644SOL    HW235727   2.705   9.165   0.399
10645SOL     OW35728   2.092   8.076   1.975
10645SOL    HW135729   1.999   8.074   2.012
10645SOL    HW235730   2.093   8.037   1.883
10646SOL     OW35731   2.087   7.723   2.858
10646SOL    HW135732   2.122   7.706   2.950
10646SOL    HW235733   1.999   7.678   2.846
10647SOL     OW35734   1.881   7.816   2.509
10647SOL    HW135735   1.799   7.859   2.548
10647SOL    HW235736   1.853   7.743   2.446
10648SOL     OW35737   2.431   8.723   3.027
10648SOL    HW135738   2.338   8.716   2.990
10648SOL    HW235739   2.442   8.812   3.071
10649SOL     OW35740   3.417   8.959   2.565
10649SOL    HW135741   3.360   8.943   2.646
10649SOL    HW235742   3.358   8.969   2.485
10650SOL     OW35743   2.997   8.151   2.579
10650SOL    HW135744   3.054   8.229   2.554
10650SOL    HW235745   2.937   8.177   2.655
10651SOL     OW35746   3.617   8.055   2.093
10651SOL    HW135747   3.605   8.042   1.994
10651SOL    HW235748   3.587   7.974   2.142
10652SOL     OW35749   2.630   8.592   2.885
10652SOL    HW135750   2.552   8.609   2.945
10652SOL    HW235751   2.664   8.679   2.849
10653SOL     OW35752   2.712   8.246   3.685
10653SOL    HW135753   2.708   8.322   3.750
10653SOL    HW235754   2.734   8.282   3.594
10654SOL     OW35755   2.548   8.609   3.665
10654SOL    HW135756   2.608   8.688   3.679
10654SOL    HW235757   2.462   8.640   3.624
10655SOL     OW35758   2.197   8.883   2.923
10655SOL    HW135759   2.119   8.852   2.870
10655SOL    HW235760   2.255   8.941   2.866
10656SOL     OW35761   3.322   8.953   3.201
10656SOL    HW135762   3.346   9.047   3.227
10656SOL    HW235763   3.306   8.899   3.283
10657SOL     OW35764   2.300   7.840   3.361
10657SOL    HW135765   2.382   7.784   3.370
10657SOL    HW235766   2.219   7.782   3.365
10658SOL     OW35767   3.465   7.895   2.599
10658SOL    HW135768   3.391   7.941   2.549
10658SOL    HW235769   3.516   7.963   2.652
10659SOL     OW35770   2.093   9.161   2.345
10659SOL    HW135771   2.127   9.238   2.399
10659SOL    HW235772   2.137   9.161   2.255
10660SOL     OW35773   2.989   8.789   3.552
10660SOL    HW135774   3.036   8.789   3.640
10660SOL    HW235775   2.941   8.702   3.541
10661SOL     OW35776   2.092   8.882   2.400
10661SOL    HW135777   2.066   8.978   2.400
10661SOL    HW235778   2.021   8.828   2.445
10662SOL     OW35779   2.102   8.539   2.748
10662SOL    HW135780   2.116   8.455   2.800
10662SOL    HW235781   2.047   8.603   2.803
10663SOL     OW35782   2.468   8.412   1.985
10663SOL    HW135783   2.475   8.496   1.931
10663SOL    HW235784   2.514   8.425   2.073
10664SOL     OW35785   3.456   7.562   3.342
10664SOL    HW135786   3.438   7.629   3.270
10664SOL    HW235787   3.453   7.608   3.431
10665SOL     OW35788   1.984   8.091   2.425
10665SOL    HW135789   1.939   8.003   2.442
10665SOL    HW235790   1.983   8.145   2.509
10666SOL     OW35791   3.704   9.215   2.221
10666SOL    HW135792   3.758   9.186   2.301
10666SOL    HW235793   3.734   9.305   2.192
10667SOL     OW35794   1.889   9.044   1.979
10667SOL    HW135795   1.870   8.948   2.000
10667SOL    HW235796   1.856   9.102   2.054
10668SOL     OW35797   3.551   8.370   2.474
10668SOL    HW135798   3.646   8.341   2.482
10668SOL    HW235799   3.543   8.435   2.399
10669SOL     OW35800   3.503   8.556   2.294
10669SOL    HW135801   3.589   8.558   2.242
10669SOL    HW235802   3.517   8.603   2.382
10670SOL     OW35803   1.975   8.185   3.459
10670SOL    HW135804   2.063   8.172   3.504
10670SOL    HW235805   1.962   8.282   3.437
10671SOL     OW35806   3.155   8.676   3.285
10671SOL    HW135807   3.192   8.603   3.227
10671SOL    HW235808   3.207   8.681   3.370
10672SOL     OW35809   2.671   7.452   2.364
10672SOL    HW135810   2.711   7.543   2.355
10672SOL    HW235811   2.571   7.460   2.370
10673SOL     OW35812   2.059   8.424   3.126
10673SOL    HW135813   2.148   8.379   3.112
10673SOL    HW235814   1.986   8.359   3.107
10674SOL     OW35815   3.387   8.447   2.052
10674SOL    HW135816   3.324   8.371   2.065
10674SOL    HW235817   3.435   8.465   2.138
10675SOL     OW35818   3.049   9.240   3.478
10675SOL    HW135819   3.073   9.300   3.402
10675SOL    HW235820   3.056   9.145   3.448
10676SOL     OW35821   2.179   7.699   3.663
10676SOL    HW135822   2.250   7.770   3.669
10676SOL    HW235823   2.091   7.738   3.691
10677SOL     OW35824   3.328   8.865   2.815
10677SOL    HW135825   3.269   8.871   2.895
10677SOL    HW235826   3.313   8.777   2.769
10678SOL     OW35827   3.529   9.162   2.434
10678SOL    HW135828   3.488   9.139   2.346
10678SOL    HW235829   3.511   9.088   2.499
10679SOL     OW35830   2.460   8.177   2.132
10679SOL    HW135831   2.484   8.246   2.064
10679SOL    HW235832   2.382   8.210   2.186
10680SOL     OW35833   3.143   7.793   2.806
10680SOL    HW135834   3.057   7.743   2.793
10680SOL    HW235835   3.205   7.739   2.862
10681SOL     OW35836   3.438   9.110   2.169
10681SOL    HW135837   3.527   9.156   2.172
10681SOL    HW235838   3.417   9.086   2.074
10682SOL     OW35839   2.669   8.053   3.327
10682SOL    HW135840   2.622   8.050   3.416
10682SOL    HW235841   2.618   7.998   3.261
10683SOL     OW35842   3.256   7.917   3.536
10683SOL    HW135843   3.236   7.960   3.624
10683SOL    HW235844   3.334   7.855   3.545
10684SOL     OW35845   2.835   8.338   3.434
10684SOL    HW135846   2.881   8.254   3.405
10684SOL    HW235847   2.779   8.372   3.359
10685SOL     OW35848   2.853   7.858   3.104
10685SOL    HW135849   2.776   7.892   3.158
10685SOL    HW235850   2.819   7.807   3.025
10686SOL     OW35851   2.903   8.149   2.291
10686SOL    HW135852   2.929   8.145   2.387
10686SOL    HW235853   2.818   8.098   2.277
10687SOL     OW35854   1.938   8.259   2.651
10687SOL    HW135855   2.037   8.247   2.660
10687SOL    HW235856   1.914   8.354   2.672
10688SOL     OW35857   1.992   9.269   3.433
10688SOL    HW135858   1.982   9.254   3.532
10688SOL    HW235859   1.906   9.305   3.397
10689SOL     OW35860   2.727   7.796   2.057
10689SOL    HW135861   2.786   7.859   2.008
10689SOL    HW235862   2.746   7.702   2.028
10690SOL     OW35863   3.581   8.033   3.693
10690SOL    HW135864   3.555   8.122   3.657
10690SOL    HW235865   3.579   7.965   3.620
10691SOL     OW35866   3.224   8.592   2.407
10691SOL    HW135867   3.307   8.563   2.359
10691SOL    HW235868   3.175   8.659   2.351
10692SOL     OW35869   2.412   7.644   2.747
10692SOL    HW135870   2.407   7.639   2.847
10692SOL    HW235871   2.414   7.740   2.718
10693SOL     OW35872   2.870   8.904   2.339
10693SOL    HW135873   2.824   8.976   2.287
10693SOL    HW235874   2.866   8.924   2.437
10694SOL     OW35875   2.213   9.249   2.715
10694SOL    HW135876   2.263   9.163   2.721
10694SOL    HW235877   2.278   9.326   2.712
10695SOL     OW35878   3.657   8.514   2.735
10695SOL    HW135879   3.595   8.499   2.659
10695SOL    HW235880   3.605   8.525   2.820
10696SOL     OW35881   3.089   8.998   3.368
10696SOL    HW135882   3.095   8.921   3.432
10696SOL    HW235883   3.037   8.972   3.288
10697SOL     OW35884   2.183   8.391   2.104
10697SOL    HW135885   2.265   8.430   2.062
10697SOL    HW235886   2.156   8.309   2.055
10698SOL     OW35887   3.320   8.183   2.590
10698SOL    HW135888   3.315   8.118   2.665
10698SOL    HW235889   3.400   8.242   2.603
10699SOL     OW35890   2.323   8.714   3.589
10699SOL    HW135891   2.273   8.715   3.503
10699SOL    HW235892   2.260   8.696   3.665
10700SOL     OW35893   2.973   9.224   2.099
10700SOL    HW135894   2.913   9.162   2.149
10700SOL    HW235895   3.004   9.180   2.014
10701SOL     OW35896   2.064   7.733   3.360
10701SOL    HW135897   1.984   7.793   3.347
10701SOL    HW235898   2.054   7.684   3.446
10702SOL     OW35899   3.494   8.825   1.943
10702SOL    HW135900   3.462   8.919   1.933
10702SOL    HW235901   3.418   8.762   1.931
10703SOL     OW35902   2.326   9.191   2.185
10703SOL    HW135903   2.359   9.230   2.271
10703SOL    HW235904   2.402   9.184   2.120
10704SOL     OW35905   3.262   7.555   2.288
10704SOL    HW135906   3.238   7.518   2.198
10704SOL    HW235907   3.361   7.571   2.292
10705SOL     OW35908   2.111   9.233   3.103
10705SOL    HW135909   2.168   9.168   3.153
10705SOL    HW235910   2.095   9.200   3.010
10706SOL     OW35911   2.802   9.146   2.766
10706SOL    HW135912   2.882   9.089   2.787
10706SOL    HW235913   2.753   9.106   2.689
10707SOL     OW35914   2.244   8.148   2.342
10707SOL    HW135915   2.289   8.058   2.339
10707SOL    HW235916   2.150   8.137   2.375
10708SOL     OW35917   3.409   7.670   3.591
10708SOL    HW135918   3.404   7.707   3.683
10708SOL    HW235919   3.337   7.601   3.579
10709SOL     OW35920   2.476   7.570   1.979
10709SOL    HW135921   2.574   7.548   1.986
10709SOL    HW235922   2.445   7.553   1.886
10710SOL     OW35923   2.643   7.712   3.611
10710SOL    HW135924   2.710   7.651   3.654
10710SOL    HW235925   2.570   7.731   3.676
10711SOL     OW35926   2.750   8.962   3.057
10711SOL    HW135927   2.727   8.937   2.963
10711SOL    HW235928   2.811   8.893   3.096
10712SOL     OW35929   3.213   8.038   3.295
10712SOL    HW135930   3.241   7.995   3.380
10712SOL    HW235931   3.238   8.134   3.296
10713SOL     OW35932   2.784   7.951   2.761
10713SOL    HW135933   2.759   7.942   2.665
10713SOL    HW235934   2.832   7.869   2.792
10714SOL     OW35935   2.401   7.512   2.374
10714SOL    HW135936   2.320   7.513   2.432
10714SOL    HW235937   2.404   7.595   2.319
10715SOL     OW35938   3.296   8.636   1.903
10715SOL    HW135939   3.328   8.560   1.960
10715SOL    HW235940   3.204   8.663   1.933
10716SOL     OW35941   2.159   7.483   2.033
10716SOL    HW135942   2.208   7.567   2.012
10716SOL    HW235943   2.221   7.418   2.078
10717SOL     OW35944   2.797   7.684   2.342
10717SOL    HW135945   2.749   7.725   2.264
10717SOL    HW235946   2.896   7.682   2.323
10718SOL     OW35947   2.938   8.131   3.326
10718SOL    HW135948   2.858   8.070   3.329
10718SOL    HW235949   3.019   8.078   3.302
10719SOL     OW35950   3.089   9.018   2.655
10719SOL    HW135951   3.110   9.092   2.590
10719SOL    HW235952   3.157   9.018   2.728
10720SOL     OW35953   3.133   9.245   2.453
10720SOL    HW135954   3.177   9.309   2.389
10720SOL    HW235955   3.083   9.297   2.523
10721SOL     OW35956   2.894   7.997   1.878
10721SOL    HW135957   2.853   8.079   1.839
10721SOL    HW235958   2.958   8.023   1.951
10722SOL     OW35959   1.940   8.004   3.248
10722SOL    HW135960   2.032   8.003   3.207
10722SOL    HW235961   1.934   8.078   3.315
10723SOL     OW35962   2.423   7.670   3.009
10723SOL    HW135963   2.461   7.586   3.046
10723SOL    HW235964   2.335   7.689   3.053
10724SOL     OW35965   2.728   7.902   2.504
10724SOL    HW135966   2.696   7.974   2.442
10724SOL    HW235967   2.752   7.821   2.451
10725SOL     OW35968   2.879   7.487   2.615
10725SOL    HW135969   2.807   7.492   2.546
10725SOL    HW235970   2.855   7.418   2.684
10726SOL     OW35971   3.291   8.621   2.729
10726SOL    HW135972   3.236   8.537   2.722
10726SOL    HW235973   3.317   8.650   2.637
10727SOL     OW35974   3.328   8.038   2.854
10727SOL    HW135975   3.298   7.943   2.861
10727SOL    HW235976   3.401   8.054   2.920
10728SOL     OW35977   3.719   8.281   2.239
10728SOL    HW135978   3.761   8.217   2.303
10728SOL    HW235979   3.681   8.230   2.161
10729SOL     OW35980   2.350   8.833   2.036
10729SOL    HW135981   2.263   8.818   2.083
10729SOL    HW235982   2.333   8.859   1.941
10730SOL     OW35983   3.526   8.728   2.519
10730SOL    HW135984   3.625   8.736   2.533
10730SOL    HW235985   3.481   8.812   2.550
10731SOL     OW35986   3.252   8.023   1.940
10731SOL    HW135987   3.198   8.002   2.021
10731SOL    HW235988   3.343   7.982   1.949
10732SOL     OW35989   2.389   7.704   2.190
10732SOL    HW135990   2.416   7.645   2.115
10732SOL    HW235991   2.389   7.799   2.159
10733SOL     OW35992   3.616   8.671   3.450
10733SOL    HW135993   3.707   8.632   3.437
10733SOL    HW235994   3.624   8.767   3.474
10734SOL     OW35995   2.926   8.795   3.202
10734SOL    HW135996   2.846   8.772   3.257
10734SOL    HW235997   3.009   8.769   3.251
10735SOL     OW35998   3.454   9.077   3.487
10735SOL    HW135999   3.481   9.111   3.397
10735SOL    HW236000   3.533   9.039   3.533
10736SOL     OW36001   2.973   8.643   2.962
10736SOL    HW136002   2.933   8.687   3.043
10736SOL    HW236003   2.932   8.680   2.879
10737SOL     OW36004   3.500   8.547   2.941
10737SOL    HW136005   3.505   8.628   3.000
10737SOL    HW236006   3.414   8.549   2.890
10738SOL     OW36007   2.777   7.537   3.264
10738SOL    HW136008   2.802   7.517   3.169
10738SOL    HW236009   2.849   7.593   3.306
10739SOL     OW36010   2.842   8.564   3.581
10739SOL    HW136011   2.743   8.570   3.591
10739SOL    HW236012   2.865   8.484   3.525
10740SOL     OW36013   2.567   8.498   2.230
10740SOL    HW136014   2.553   8.505   2.329
10740SOL    HW236015   2.651   8.447   2.212
10741SOL     OW36016   2.272   8.261   3.113
10741SOL    HW136017   2.358   8.273   3.163
10741SOL    HW236018   2.230   8.174   3.140
10742SOL     OW36019   3.136   7.834   3.124
10742SOL    HW136020   3.157   7.908   3.188
10742SOL    HW236021   3.047   7.851   3.081
10743SOL     OW36022   1.926   9.012   3.193
10743SOL    HW136023   1.880   9.094   3.159
10743SOL    HW236024   2.024   9.031   3.202
10744SOL     OW36025   2.428   7.985   2.727
10744SOL    HW136026   2.440   8.051   2.653
10744SOL    HW236027   2.474   8.019   2.810
10745SOL     OW36028   3.114   8.796   2.250
10745SOL    HW136029   3.164   8.873   2.290
10745SOL    HW236030   3.019   8.798   2.282
10746SOL     OW36031   3.134   8.893   3.004
10746SOL    HW136032   3.181   8.906   3.091
10746SOL    HW236033   3.068   8.819   3.013
10747SOL     OW36034   3.444   8.087   2.334
10747SOL    HW136035   3.413   8.148   2.407
10747SOL    HW236036   3.494   8.139   2.265
10748SOL     OW36037   2.216   8.958   3.191
10748SOL    HW136038   2.195   8.914   3.104
10748SOL    HW236039   2.313   8.984   3.194
10749SOL     OW36040   2.264   8.199   3.460
10749SOL    HW136041   2.332   8.254   3.413
10749SOL    HW236042   2.304   8.111   3.487
10750SOL     OW36043   3.449   8.227   3.532
10750SOL    HW136044   3.357   8.265   3.527
10750SOL    HW236045   3.509   8.274   3.467
10751SOL     OW36046   2.875   7.553   3.632
10751SOL    HW136047   2.881   7.638   3.580
10751SOL    HW236048   2.907   7.477   3.575
10752SOL     OW36049   2.366   7.498   3.602
10752SOL    HW136050   2.324   7.441   3.532
10752SOL    HW236051   2.300   7.567   3.634
10753SOL     OW36052   2.435   8.318   2.891
10753SOL    HW136053   2.479   8.407   2.882
10753SOL    HW236054   2.372   8.318   2.968
10754SOL     OW36055   3.222   8.310   2.907
10754SOL    HW136056   3.147   8.310   2.841
10754SOL    HW236057   3.259   8.218   2.916
10755SOL     OW36058   3.071   7.973   2.137
10755SOL    HW136059   3.084   7.889   2.191
10755SOL    HW236060   3.042   8.047   2.197
10756SOL     OW36061   2.169   7.661   3.093
10756SOL    HW136062   2.146   7.698   3.183
10756SOL    HW236063   2.139   7.566   3.087
10757SOL     OW36064   1.899   8.758   3.144
10757SOL    HW136065   1.952   8.709   3.212
10757SOL    HW236066   1.921   8.856   3.149
10758SOL     OW36067   2.594   8.082   2.926
10758SOL    HW136068   2.653   8.056   2.850
10758SOL    HW236069   2.566   8.178   2.915
10759SOL     OW36070   3.590   8.383   3.716
10759SOL    HW136071   3.544   8.376   3.627
10759SOL    HW236072   3.528   8.427   3.782
10760SOL     OW36073   2.169   7.511   2.480
10760SOL    HW136074   2.158   7.605   2.513
10760SOL    HW236075   2.164   7.448   2.557
10761SOL     OW36076   3.484   7.815   2.236
10761SOL    HW136077   3.486   7.739   2.300
10761SOL    HW236078   3.436   7.892   2.276
10762SOL     OW36079   2.885   8.214   2.828
10762SOL    HW136080   2.900   8.235   2.924
10762SOL    HW236081   2.855   8.119   2.819
10763SOL     OW36082   2.842   9.021   3.562
10763SOL    HW136083   2.822   9.065   3.474
10763SOL    HW236084   2.881   8.930   3.546
10764SOL     OW36085   3.721   8.966   3.467
10764SOL    HW136086   3.735   8.993   3.372
10764SOL    HW236087   3.804   8.988   3.520
10765SOL     OW36088   2.212   8.346   3.666
10765SOL    HW136089   2.288   8.390   3.714
10765SOL    HW236090   2.247   8.299   3.584
10766SOL     OW36091   3.402   7.722   1.987
10766SOL    HW136092   3.341   7.647   2.010
10766SOL    HW236093   3.424   7.774   2.070
10767SOL     OW36094   3.165   8.286   1.904
10767SOL    HW136095   3.199   8.193   1.919
10767SOL    HW236096   3.183   8.313   1.809
10768SOL     OW36097   2.930   8.781   2.711
10768SOL    HW136098   2.937   8.697   2.656
10768SOL    HW236099   2.992   8.850   2.675
10769SOL     OW36100   2.181   8.258   2.811
10769SOL    HW136101   2.274   8.294   2.816
10769SOL    HW236102   2.175   8.173   2.863
10770SOL     OW36103   2.201   7.957   2.868
10770SOL    HW136104   2.149   7.874   2.851
10770SOL    HW236105   2.278   7.962   2.804
10771SOL     OW36106   3.000   7.828   3.540
10771SOL    HW136107   2.955   7.891   3.604
10771SOL    HW236108   3.093   7.859   3.523
10772SOL     OW36109   3.022   7.655   3.339
10772SOL    HW136110   3.022   7.719   3.416
10772SOL    HW236111   3.050   7.703   3.256
10773SOL     OW36112   1.870   8.774   2.062
10773SOL    HW136113   1.777   8.795   2.031
10773SOL    HW236114   1.880   8.675   2.075
10774SOL     OW36115   1.950   9.249   2.789
10774SOL    HW136116   1.908   9.163   2.762
10774SOL    HW236117   2.044   9.252   2.755
10775SOL     OW36118   2.366   9.016   2.772
10775SOL    HW136119   2.432   9.090   2.781
10775SOL    HW236120   2.410   8.937   2.730
10776SOL     OW36121   2.864   8.244   3.100
10776SOL    HW136122   2.905   8.212   3.186
10776SOL    HW236123   2.768   8.217   3.097
10777SOL     OW36124   1.902   7.992   2.976
10777SOL    HW136125   1.987   7.959   2.935
10777SOL    HW236126   1.915   8.007   3.074
10778SOL     OW36127   2.051   7.968   3.584
10778SOL    HW136128   2.110   7.928   3.514
10778SOL    HW236129   1.993   8.039   3.543
10779SOL     OW36130   3.231   8.398   3.522
10779SOL    HW136131   3.270   8.487   3.542
10779SOL    HW236132   3.241   8.378   3.425
10780SOL     OW36133   2.677   8.020   2.187
10780SOL    HW136134   2.684   7.931   2.141
10780SOL    HW236135   2.583   8.054   2.179
10781SOL     OW36136   3.519   8.052   3.068
10781SOL    HW136137   3.481   7.983   3.130
10781SOL    HW236138   3.601   8.016   3.024
10782SOL     OW36139   2.114   9.012   3.606
10782SOL    HW136140   2.084   9.069   3.682
10782SOL    HW236141   2.107   8.915   3.632
10783SOL     OW36142   2.533   7.912   3.131
10783SOL    HW136143   2.499   7.823   3.101
10783SOL    HW236144   2.559   7.966   3.051
10784SOL     OW36145   2.792   9.126   3.327
10784SOL    HW136146   2.768   9.108   3.232
10784SOL    HW236147   2.822   9.220   3.337
10785SOL     OW36148   2.335   7.948   2.053
10785SOL    HW136149   2.396   8.028   2.057
10785SOL    HW236150   2.240   7.979   2.060
10786SOL     OW36151   2.021   8.585   3.328
10786SOL    HW136152   2.043   8.524   3.404
10786SOL    HW236153   2.031   8.536   3.242
10787SOL     OW36154   3.209   8.507   3.096
10787SOL    HW136155   3.233   8.444   3.022
10787SOL    HW236156   3.119   8.547   3.078
10788SOL     OW36157   3.164   8.303   2.171
10788SOL    HW136158   3.078   8.272   2.213
10788SOL    HW236159   3.160   8.289   2.072
10789SOL     OW36160   3.621   9.195   3.016
10789SOL    HW136161   3.682   9.225   2.943
10789SOL    HW236162   3.583   9.106   2.994
10790SOL     OW36163   3.114   9.179   2.990
10790SOL    HW136164   3.198   9.184   2.936
10790SOL    HW236165   3.091   9.083   3.008
10791SOL     OW36166   1.945   8.706   2.884
10791SOL    HW136167   1.940   8.705   2.984
10791SOL    HW236168   1.862   8.665   2.846
10792SOL     OW36169   2.550   9.110   3.578
10792SOL    HW136170   2.494   9.191   3.587
10792SOL    HW236171   2.602   9.114   3.492
10793SOL     OW36172   3.588   7.583   2.385
10793SOL    HW136173   3.661   7.566   2.318
10793SOL    HW236174   3.557   7.496   2.423
10794SOL     OW36175   3.250   9.021   2.339
10794SOL    HW136176   3.317   9.033   2.265
10794SOL    HW236177   3.210   9.110   2.362
10795SOL     OW36178   1.992   9.242   3.713
10795SOL    HW136179   1.951   9.168   3.766
10795SOL    HW236180   2.056   9.293   3.771
10796SOL     OW36181   3.142   8.375   2.534
10796SOL    HW136182   3.202   8.294   2.536
10796SOL    HW236183   3.182   8.444   2.474
10797SOL     OW36184   2.692   8.721   3.284
10797SOL    HW136185   2.687   8.754   3.379
10797SOL    HW236186   2.606   8.740   3.238
10798SOL     OW36187   2.534   9.064   2.016
10798SOL    HW136188   2.543   9.074   1.917
10798SOL    HW236189   2.494   8.975   2.037
10799SOL     OW36190   3.512   9.168   3.256
10799SOL    HW136191   3.565   9.178   3.172
10799SOL    HW236192   3.485   9.258   3.290
10800SOL     OW36193   3.703   7.623   2.825
10800SOL    HW136194   3.742   7.538   2.789
10800SOL    HW236195   3.605   7.625   2.806
10801SOL     OW36196   2.125   7.774   2.582
10801SOL    HW136197   2.046   7.825   2.548
10801SOL    HW236198   2.116   7.759   2.680
10802SOL     OW36199   3.056   9.060   1.893
10802SOL    HW136200   3.062   8.967   1.930
10802SOL    HW236201   2.997   9.060   1.813
10803SOL     OW36202   2.684   8.450   3.234
10803SOL    HW136203   2.724   8.449   3.142
10803SOL    HW236204   2.694   8.542   3.274
10804SOL     OW36205   2.778   8.358   2.153
10804SOL    HW136206   2.841   8.396   2.085
10804SOL    HW236207   2.818   8.275   2.192
10805SOL     OW36208   3.366   9.055   1.906
10805SOL    HW136209   3.274   9.092   1.913
10805SOL    HW236210   3.404   9.075   1.816
10806SOL     OW36211   2.234   8.736   3.352
10806SOL    HW136212   2.221   8.829   3.318
10806SOL    HW236213   2.150   8.684   3.339
10807SOL     OW36214   3.476   8.740   3.151
10807SOL    HW136215   3.536   8.743   3.231
10807SOL    HW236216   3.401   8.804   3.164
10808SOL     OW36217   2.901   8.546   2.558
10808SOL    HW136218   2.831   8.499   2.612
10808SOL    HW236219   2.960   8.478   2.515
10809SOL     OW36220   2.876   7.684   2.833
10809SOL    HW136221   2.868   7.648   2.740
10809SOL    HW236222   2.874   7.608   2.898
10810SOL     OW36223   3.571   7.833   3.243
10810SOL    HW136224   3.644   7.902   3.247
10810SOL    HW236225   3.599   7.758   3.184
10811SOL     OW36226   2.117   8.796   2.152
10811SOL    HW136227   2.021   8.797   2.125
10811SOL    HW236228   2.129   8.849   2.236
10812SOL     OW36229   1.967   8.461   3.588
10812SOL    HW136230   1.890   8.428   3.642
10812SOL    HW236231   2.052   8.431   3.630
10813SOL     OW36232   2.534   7.651   3.351
10813SOL    HW136233   2.624   7.635   3.311
10813SOL    HW236234   2.542   7.656   3.450
10814SOL     OW36235   1.937   7.793   1.895
10814SOL    HW136236   1.845   7.765   1.866
10814SOL    HW236237   1.968   7.870   1.839
10815SOL     OW36238   3.302   8.304   3.260
10815SOL    HW136239   3.245   8.356   3.197
10815SOL    HW236240   3.398   8.316   3.236
10816SOL     OW36241   1.934   7.614   2.180
10816SOL    HW136242   1.917   7.697   2.126
10816SOL    HW236243   2.024   7.577   2.158
10817SOL     OW36244   3.045   8.783   1.981
10817SOL    HW136245   2.946   8.772   1.983
10817SOL    HW236246   3.079   8.798   2.074
10818SOL     OW36247   2.475   8.290   3.293
10818SOL    HW136248   2.531   8.371   3.276
10818SOL    HW236249   2.534   8.210   3.296
10819SOL     OW36250   3.355   9.215   2.821
10819SOL    HW136251   3.388   9.279   2.752
10819SOL    HW236252   3.421   9.209   2.896
10820SOL     OW36253   2.578   8.013   3.570
10820SOL    HW136254   2.597   8.078   3.644
10820SOL    HW236255   2.638   7.933   3.579
10821SOL     OW36256   3.312   8.668   3.495
10821SOL    HW136257   3.303   8.658   3.594
10821SOL    HW236258   3.408   8.661   3.469
10822SOL     OW36259   2.252   9.189   3.422
10822SOL    HW136260   2.161   9.230   3.420
10822SOL    HW236261   2.245   9.095   3.454
10823SOL     OW36262   3.536   8.331   3.116
10823SOL    HW136263   3.509   8.242   3.079
10823SOL    HW236264   3.537   8.399   3.043
10824SOL     OW36265   3.087   7.773   2.311
10824SOL    HW136266   3.152   7.699   2.300
10824SOL    HW236267   3.107   7.823   2.395
10825SOL     OW36268   2.456   8.193   2.514
10825SOL    HW136269   2.506   8.278   2.495
10825SOL    HW236270   2.368   8.195   2.466
10826SOL     OW36271   3.639   7.790   3.504
10826SOL    HW136272   3.622   7.821   3.410
10826SOL    HW236273   3.555   7.753   3.542
10827SOL     OW36274   3.592   8.382   3.379
10827SOL    HW136275   3.630   8.473   3.394
10827SOL    HW236276   3.584   8.365   3.280
10828SOL     OW36277   2.721   8.822   1.878
10828SOL    HW136278   2.675   8.837   1.966
10828SOL    HW236279   2.765   8.907   1.848
10829SOL     OW36280   2.523   9.238   2.815
10829SOL    HW136281   2.477   9.326   2.802
10829SOL    HW236282   2.622   9.250   2.808
10830SOL     OW36283   2.721   8.404   2.723
10830SOL    HW136284   2.775   8.335   2.771
10830SOL    HW236285   2.689   8.473   2.789
10831SOL     OW36286   2.945   8.432   1.949
10831SOL    HW136287   2.922   8.485   1.867
10831SOL    HW236288   3.026   8.376   1.930
10832SOL     OW36289   3.723   9.017   2.713
10832SOL    HW136290   3.652   9.005   2.643
10832SOL    HW236291   3.724   8.938   2.773
10833SOL     OW36292   2.083   8.762   3.706
10833SOL    HW136293   2.018   8.689   3.685
10833SOL    HW236294   2.087   8.776   3.804
10834SOL     OW36295   1.941   8.688   2.515
10834SOL    HW136296   1.940   8.641   2.603
10834SOL    HW236297   2.023   8.660   2.464
10835SOL     OW36298   2.534   8.839   3.486
10835SOL    HW136299   2.456   8.789   3.524
10835SOL    HW236300   2.531   8.934   3.517
10836SOL     OW36301   3.686   7.640   3.089
10836SOL    HW136302   3.682   7.550   3.133
10836SOL    HW236303   3.689   7.629   2.990
10837SOL     OW36304   2.290   7.872   2.382
10837SOL    HW136305   2.320   7.800   2.320
10837SOL    HW236306   2.251   7.832   2.465
10838SOL     OW36307   3.567   8.935   2.966
10838SOL    HW136308   3.474   8.910   2.939
10838SOL    HW236309   3.593   8.885   3.048
10839SOL     OW36310   2.179   7.995   3.142
10839SOL    HW136311   2.217   7.936   3.214
10839SOL    HW236312   2.219   7.969   3.054
10840SOL     OW36313   2.674   9.034   2.549
10840SOL    HW136314   2.706   9.044   2.455
10840SOL    HW236315   2.595   8.972   2.551
10841SOL     OW36316   3.286   7.662   2.974
10841SOL    HW136317   3.338   7.597   3.029
10841SOL    HW236318   3.237   7.725   3.035
10842SOL     OW36319   2.863   7.482   3.016
10842SOL    HW136320   2.800   7.410   2.985
10842SOL    HW236321   2.956   7.446   3.016
10843SOL     OW36322   2.632   8.778   2.163
10843SOL    HW136323   2.586   8.691   2.180
10843SOL    HW236324   2.723   8.775   2.204
10844SOL     OW36325   2.480   9.015   3.146
10844SOL    HW136326   2.475   9.097   3.203
10844SOL    HW236327   2.569   9.012   3.101
10845SOL     OW36328   3.214   7.500   2.030
10845SOL    HW136329   3.249   7.459   1.946
10845SOL    HW236330   3.124   7.462   2.050
10846SOL     OW36331   3.162   7.901   2.553
10846SOL    HW136332   3.103   7.981   2.557
10846SOL    HW236333   3.177   7.866   2.646
10847SOL     OW36334   3.455   7.669   2.744
10847SOL    HW136335   3.371   7.668   2.798
10847SOL    HW236336   3.457   7.752   2.688
10848SOL     OW36337   1.901   8.525   2.162
10848SOL    HW136338   2.000   8.514   2.153
10848SOL    HW236339   1.861   8.439   2.194
10849SOL     OW36340   2.737   9.094   2.199
10849SOL    HW136341   2.660   9.059   2.145
10849SOL    HW236342   2.705   9.165   2.261
10850SOL     OW36343   2.092   8.076   3.837
10850SOL    HW136344   1.999   8.074   3.874
10850SOL    HW236345   2.093   8.037   3.745
10851SOL     OW36346   2.087   7.723   4.720
10851SOL    HW136347   2.122   7.706   4.812
10851SOL    HW236348   1.999   7.678   4.708
10852SOL     OW36349   1.881   7.816   4.371
10852SOL    HW136350   1.799   7.859   4.410
10852SOL    HW236351   1.853   7.743   4.308
10853SOL     OW36352   2.431   8.723   4.889
10853SOL    HW136353   2.338   8.716   4.852
10853SOL    HW236354   2.442   8.812   4.933
10854SOL     OW36355   3.417   8.959   4.427
10854SOL    HW136356   3.360   8.943   4.508
10854SOL    HW236357   3.358   8.969   4.347
10855SOL     OW36358   2.997   8.151   4.441
10855SOL    HW136359   3.054   8.229   4.416
10855SOL    HW236360   2.937   8.177   4.517
10856SOL     OW36361   3.617   8.055   3.955
10856SOL    HW136362   3.605   8.042   3.856
10856SOL    HW236363   3.587   7.974   4.004
10857SOL     OW36364   2.630   8.592   4.747
10857SOL    HW136365   2.552   8.609   4.807
10857SOL    HW236366   2.664   8.679   4.711
10858SOL     OW36367   2.712   8.246   5.547
10858SOL    HW136368   2.708   8.322   5.612
10858SOL    HW236369   2.734   8.282   5.456
10859SOL     OW36370   2.547   8.460   4.389
10859SOL    HW136371   2.616   8.444   4.459
10859SOL    HW236372   2.474   8.517   4.427
10860SOL     OW36373   2.548   8.609   5.527
10860SOL    HW136374   2.608   8.688   5.541
10860SOL    HW236375   2.462   8.640   5.486
10861SOL     OW36376   2.197   8.883   4.785
10861SOL    HW136377   2.119   8.852   4.732
10861SOL    HW236378   2.255   8.941   4.728
10862SOL     OW36379   3.322   8.953   5.063
10862SOL    HW136380   3.346   9.047   5.089
10862SOL    HW236381   3.306   8.899   5.145
10863SOL     OW36382   2.300   7.840   5.223
10863SOL    HW136383   2.382   7.784   5.232
10863SOL    HW236384   2.219   7.782   5.227
10864SOL     OW36385   3.465   7.895   4.461
10864SOL    HW136386   3.391   7.941   4.411
10864SOL    HW236387   3.516   7.963   4.514
10865SOL     OW36388   2.093   9.161   4.207
10865SOL    HW136389   2.127   9.238   4.261
10865SOL    HW236390   2.137   9.161   4.117
10866SOL     OW36391   2.989   8.789   5.414
10866SOL    HW136392   3.036   8.789   5.502
10866SOL    HW236393   2.941   8.702   5.403
10867SOL     OW36394   2.092   8.882   4.262
10867SOL    HW136395   2.066   8.978   4.262
10867SOL    HW236396   2.021   8.828   4.307
10868SOL     OW36397   2.102   8.539   4.610
10868SOL    HW136398   2.116   8.455   4.662
10868SOL    HW236399   2.047   8.603   4.665
10869SOL     OW36400   3.456   7.562   5.204
10869SOL    HW136401   3.438   7.629   5.132
10869SOL    HW236402   3.453   7.608   5.293
10870SOL     OW36403   1.984   8.091   4.287
10870SOL    HW136404   1.939   8.003   4.304
10870SOL    HW236405   1.983   8.145   4.371
10871SOL     OW36406   3.704   9.215   4.083
10871SOL    HW136407   3.758   9.186   4.163
10871SOL    HW236408   3.734   9.305   4.054
10872SOL     OW36409   1.889   9.044   3.841
10872SOL    HW136410   1.870   8.948   3.862
10872SOL    HW236411   1.856   9.102   3.916
10873SOL     OW36412   3.551   8.370   4.336
10873SOL    HW136413   3.646   8.341   4.344
10873SOL    HW236414   3.543   8.435   4.261
10874SOL     OW36415   3.503   8.556   4.156
10874SOL    HW136416   3.589   8.558   4.104
10874SOL    HW236417   3.517   8.603   4.244
10875SOL     OW36418   2.475   8.813   4.450
10875SOL    HW136419   2.426   8.726   4.459
10875SOL    HW236420   2.452   8.856   4.363
10876SOL     OW36421   3.155   8.676   5.147
10876SOL    HW136422   3.192   8.603   5.089
10876SOL    HW236423   3.207   8.681   5.232
10877SOL     OW36424   2.671   7.452   4.226
10877SOL    HW136425   2.711   7.543   4.217
10877SOL    HW236426   2.571   7.460   4.232
10878SOL     OW36427   2.059   8.424   4.988
10878SOL    HW136428   2.148   8.379   4.974
10878SOL    HW236429   1.986   8.359   4.969
10879SOL     OW36430   3.387   8.447   3.914
10879SOL    HW136431   3.324   8.371   3.927
10879SOL    HW236432   3.435   8.465   4.000
10880SOL     OW36433   3.049   9.240   5.340
10880SOL    HW136434   3.073   9.300   5.264
10880SOL    HW236435   3.056   9.145   5.310
10881SOL     OW36436   2.179   7.699   5.525
10881SOL    HW136437   2.250   7.770   5.531
10881SOL    HW236438   2.091   7.738   5.553
10882SOL     OW36439   3.328   8.865   4.677
10882SOL    HW136440   3.269   8.871   4.757
10882SOL    HW236441   3.313   8.777   4.631
10883SOL     OW36442   3.529   9.162   4.296
10883SOL    HW136443   3.488   9.139   4.208
10883SOL    HW236444   3.511   9.088   4.361
10884SOL     OW36445   2.460   8.177   3.994
10884SOL    HW136446   2.484   8.246   3.926
10884SOL    HW236447   2.382   8.210   4.048
10885SOL     OW36448   3.143   7.793   4.668
10885SOL    HW136449   3.057   7.743   4.655
10885SOL    HW236450   3.205   7.739   4.724
10886SOL     OW36451   3.438   9.110   4.031
10886SOL    HW136452   3.527   9.156   4.034
10886SOL    HW236453   3.417   9.086   3.936
10887SOL     OW36454   2.669   8.053   5.189
10887SOL    HW136455   2.622   8.050   5.278
10887SOL    HW236456   2.618   7.998   5.123
10888SOL     OW36457   3.256   7.917   5.398
10888SOL    HW136458   3.236   7.960   5.486
10888SOL    HW236459   3.334   7.855   5.407
10889SOL     OW36460   2.835   8.338   5.296
10889SOL    HW136461   2.881   8.254   5.267
10889SOL    HW236462   2.779   8.372   5.221
10890SOL     OW36463   2.853   7.858   4.966
10890SOL    HW136464   2.776   7.892   5.020
10890SOL    HW236465   2.819   7.807   4.887
10891SOL     OW36466   2.903   8.149   4.153
10891SOL    HW136467   2.929   8.145   4.249
10891SOL    HW236468   2.818   8.098   4.139
10892SOL     OW36469   1.938   8.259   4.513
10892SOL    HW136470   2.037   8.247   4.522
10892SOL    HW236471   1.914   8.354   4.534
10893SOL     OW36472   1.992   9.269   5.295
10893SOL    HW136473   1.982   9.254   5.394
10893SOL    HW236474   1.906   9.305   5.259
10894SOL     OW36475   2.727   7.796   3.919
10894SOL    HW136476   2.786   7.859   3.870
10894SOL    HW236477   2.746   7.702   3.890
10895SOL     OW36478   3.581   8.033   5.555
10895SOL    HW136479   3.555   8.122   5.519
10895SOL    HW236480   3.579   7.965   5.482
10896SOL     OW36481   3.224   8.592   4.269
10896SOL    HW136482   3.307   8.563   4.221
10896SOL    HW236483   3.175   8.659   4.213
10897SOL     OW36484   2.412   7.644   4.609
10897SOL    HW136485   2.407   7.639   4.709
10897SOL    HW236486   2.414   7.740   4.580
10898SOL     OW36487   2.870   8.904   4.201
10898SOL    HW136488   2.824   8.976   4.149
10898SOL    HW236489   2.866   8.924   4.299
10899SOL     OW36490   2.213   9.249   4.577
10899SOL    HW136491   2.263   9.163   4.583
10899SOL    HW236492   2.278   9.326   4.574
10900SOL     OW36493   3.657   8.514   4.597
10900SOL    HW136494   3.595   8.499   4.521
10900SOL    HW236495   3.605   8.525   4.682
10901SOL     OW36496   3.089   8.998   5.230
10901SOL    HW136497   3.095   8.921   5.294
10901SOL    HW236498   3.037   8.972   5.150
10902SOL     OW36499   2.183   8.391   3.966
10902SOL    HW136500   2.265   8.430   3.924
10902SOL    HW236501   2.156   8.309   3.917
10903SOL     OW36502   3.320   8.183   4.452
10903SOL    HW136503   3.315   8.118   4.527
10903SOL    HW236504   3.400   8.242   4.465
10904SOL     OW36505   2.323   8.714   5.451
10904SOL    HW136506   2.273   8.715   5.365
10904SOL    HW236507   2.260   8.696   5.527
10905SOL     OW36508   2.973   9.224   3.961
10905SOL    HW136509   2.913   9.162   4.011
10905SOL    HW236510   3.004   9.180   3.876
10906SOL     OW36511   2.064   7.733   5.222
10906SOL    HW136512   1.984   7.793   5.209
10906SOL    HW236513   2.054   7.684   5.308
10907SOL     OW36514   3.494   8.825   3.805
10907SOL    HW136515   3.462   8.919   3.795
10907SOL    HW236516   3.418   8.762   3.793
10908SOL     OW36517   2.326   9.191   4.047
10908SOL    HW136518   2.359   9.230   4.133
10908SOL    HW236519   2.402   9.184   3.982
10909SOL     OW36520   3.262   7.555   4.150
10909SOL    HW136521   3.238   7.518   4.060
10909SOL    HW236522   3.361   7.571   4.154
10910SOL     OW36523   2.111   9.233   4.965
10910SOL    HW136524   2.168   9.168   5.015
10910SOL    HW236525   2.095   9.200   4.872
10911SOL     OW36526   2.802   9.146   4.628
10911SOL    HW136527   2.882   9.089   4.649
10911SOL    HW236528   2.753   9.106   4.551
10912SOL     OW36529   2.244   8.148   4.204
10912SOL    HW136530   2.289   8.058   4.201
10912SOL    HW236531   2.150   8.137   4.237
10913SOL     OW36532   3.409   7.670   5.453
10913SOL    HW136533   3.404   7.707   5.545
10913SOL    HW236534   3.337   7.601   5.441
10914SOL     OW36535   2.476   7.570   3.841
10914SOL    HW136536   2.574   7.548   3.848
10914SOL    HW236537   2.445   7.553   3.748
10915SOL     OW36538   2.643   7.712   5.473
10915SOL    HW136539   2.710   7.651   5.516
10915SOL    HW236540   2.570   7.731   5.538
10916SOL     OW36541   2.750   8.962   4.919
10916SOL    HW136542   2.727   8.937   4.825
10916SOL    HW236543   2.811   8.893   4.958
10917SOL     OW36544   3.213   8.038   5.157
10917SOL    HW136545   3.241   7.995   5.242
10917SOL    HW236546   3.238   8.134   5.158
10918SOL     OW36547   2.665   8.850   4.648
10918SOL    HW136548   2.755   8.864   4.606
10918SOL    HW236549   2.594   8.852   4.577
10919SOL     OW36550   2.784   7.951   4.623
10919SOL    HW136551   2.759   7.942   4.527
10919SOL    HW236552   2.832   7.869   4.654
10920SOL     OW36553   2.401   7.512   4.236
10920SOL    HW136554   2.320   7.513   4.294
10920SOL    HW236555   2.404   7.595   4.181
10921SOL     OW36556   3.296   8.636   3.765
10921SOL    HW136557   3.328   8.560   3.822
10921SOL    HW236558   3.204   8.663   3.795
10922SOL     OW36559   2.159   7.483   3.895
10922SOL    HW136560   2.208   7.567   3.874
10922SOL    HW236561   2.221   7.418   3.940
10923SOL     OW36562   2.797   7.684   4.204
10923SOL    HW136563   2.749   7.725   4.126
10923SOL    HW236564   2.896   7.682   4.185
10924SOL     OW36565   2.938   8.131   5.188
10924SOL    HW136566   2.858   8.070   5.191
10924SOL    HW236567   3.019   8.078   5.164
10925SOL     OW36568   3.089   9.018   4.517
10925SOL    HW136569   3.110   9.092   4.452
10925SOL    HW236570   3.157   9.018   4.590
10926SOL     OW36571   2.321   8.600   4.465
10926SOL    HW136572   2.250   8.573   4.530
10926SOL    HW236573   2.295   8.572   4.372
10927SOL     OW36574   3.133   9.245   4.315
10927SOL    HW136575   3.177   9.309   4.251
10927SOL    HW236576   3.083   9.297   4.385
10928SOL     OW36577   2.894   7.997   3.740
10928SOL    HW136578   2.853   8.079   3.701
10928SOL    HW236579   2.958   8.023   3.813
10929SOL     OW36580   2.423   7.670   4.871
10929SOL    HW136581   2.461   7.586   4.908
10929SOL    HW236582   2.335   7.689   4.915
10930SOL     OW36583   2.728   7.902   4.366
10930SOL    HW136584   2.696   7.974   4.304
10930SOL    HW236585   2.752   7.821   4.313
10931SOL     OW36586   2.879   7.487   4.477
10931SOL    HW136587   2.807   7.492   4.408
10931SOL    HW236588   2.855   7.418   4.546
10932SOL     OW36589   3.291   8.621   4.591
10932SOL    HW136590   3.236   8.537   4.584
10932SOL    HW236591   3.317   8.650   4.499
10933SOL     OW36592   3.328   8.038   4.716
10933SOL    HW136593   3.298   7.943   4.723
10933SOL    HW236594   3.401   8.054   4.782
10934SOL     OW36595   3.719   8.281   4.101
10934SOL    HW136596   3.761   8.217   4.165
10934SOL    HW236597   3.681   8.230   4.023
10935SOL     OW36598   3.526   8.728   4.381
10935SOL    HW136599   3.625   8.736   4.395
10935SOL    HW236600   3.481   8.812   4.412
10936SOL     OW36601   3.252   8.023   3.802
10936SOL    HW136602   3.198   8.002   3.883
10936SOL    HW236603   3.343   7.982   3.811
10937SOL     OW36604   2.389   7.704   4.052
10937SOL    HW136605   2.416   7.645   3.977
10937SOL    HW236606   2.389   7.799   4.021
10938SOL     OW36607   3.616   8.671   5.312
10938SOL    HW136608   3.707   8.632   5.299
10938SOL    HW236609   3.624   8.767   5.336
10939SOL     OW36610   2.926   8.795   5.064
10939SOL    HW136611   2.846   8.772   5.119
10939SOL    HW236612   3.009   8.769   5.113
10940SOL     OW36613   3.454   9.077   5.349
10940SOL    HW136614   3.481   9.111   5.259
10940SOL    HW236615   3.533   9.039   5.395
10941SOL     OW36616   2.973   8.643   4.824
10941SOL    HW136617   2.933   8.687   4.905
10941SOL    HW236618   2.932   8.680   4.741
10942SOL     OW36619   3.500   8.547   4.803
10942SOL    HW136620   3.505   8.628   4.862
10942SOL    HW236621   3.414   8.549   4.752
10943SOL     OW36622   2.777   7.537   5.126
10943SOL    HW136623   2.802   7.517   5.031
10943SOL    HW236624   2.849   7.593   5.168
10944SOL     OW36625   2.842   8.564   5.443
10944SOL    HW136626   2.743   8.570   5.453
10944SOL    HW236627   2.865   8.484   5.387
10945SOL     OW36628   2.272   8.261   4.975
10945SOL    HW136629   2.358   8.273   5.025
10945SOL    HW236630   2.230   8.174   5.002
10946SOL     OW36631   3.136   7.834   4.986
10946SOL    HW136632   3.157   7.908   5.050
10946SOL    HW236633   3.047   7.851   4.943
10947SOL     OW36634   1.926   9.012   5.055
10947SOL    HW136635   1.880   9.094   5.021
10947SOL    HW236636   2.024   9.031   5.064
10948SOL     OW36637   2.229   8.548   4.225
10948SOL    HW136638   2.222   8.631   4.169
10948SOL    HW236639   2.233   8.468   4.165
10949SOL     OW36640   2.428   7.985   4.589
10949SOL    HW136641   2.440   8.051   4.515
10949SOL    HW236642   2.474   8.019   4.672
10950SOL     OW36643   3.114   8.796   4.112
10950SOL    HW136644   3.164   8.873   4.152
10950SOL    HW236645   3.019   8.798   4.144
10951SOL     OW36646   3.134   8.893   4.866
10951SOL    HW136647   3.181   8.906   4.953
10951SOL    HW236648   3.068   8.819   4.875
10952SOL     OW36649   3.444   8.087   4.196
10952SOL    HW136650   3.413   8.148   4.269
10952SOL    HW236651   3.494   8.139   4.127
10953SOL     OW36652   2.216   8.958   5.053
10953SOL    HW136653   2.195   8.914   4.966
10953SOL    HW236654   2.313   8.984   5.056
10954SOL     OW36655   2.264   8.199   5.322
10954SOL    HW136656   2.332   8.254   5.275
10954SOL    HW236657   2.304   8.111   5.349
10955SOL     OW36658   3.449   8.227   5.394
10955SOL    HW136659   3.357   8.265   5.389
10955SOL    HW236660   3.509   8.274   5.329
10956SOL     OW36661   2.875   7.553   5.494
10956SOL    HW136662   2.881   7.638   5.442
10956SOL    HW236663   2.907   7.477   5.437
10957SOL     OW36664   2.366   7.498   5.464
10957SOL    HW136665   2.324   7.441   5.394
10957SOL    HW236666   2.300   7.567   5.496
10958SOL     OW36667   2.435   8.318   4.753
10958SOL    HW136668   2.479   8.407   4.744
10958SOL    HW236669   2.372   8.318   4.830
10959SOL     OW36670   3.222   8.310   4.769
10959SOL    HW136671   3.147   8.310   4.703
10959SOL    HW236672   3.259   8.218   4.778
10960SOL     OW36673   3.071   7.973   3.999
10960SOL    HW136674   3.084   7.889   4.053
10960SOL    HW236675   3.042   8.047   4.059
10961SOL     OW36676   2.169   7.661   4.955
10961SOL    HW136677   2.146   7.698   5.045
10961SOL    HW236678   2.139   7.566   4.949
10962SOL     OW36679   1.899   8.758   5.006
10962SOL    HW136680   1.952   8.709   5.074
10962SOL    HW236681   1.921   8.856   5.011
10963SOL     OW36682   2.594   8.082   4.788
10963SOL    HW136683   2.653   8.056   4.712
10963SOL    HW236684   2.566   8.178   4.777
10964SOL     OW36685   3.590   8.383   5.578
10964SOL    HW136686   3.544   8.376   5.489
10964SOL    HW236687   3.528   8.427   5.644
10965SOL     OW36688   2.169   7.511   4.342
10965SOL    HW136689   2.158   7.605   4.375
10965SOL    HW236690   2.164   7.448   4.419
10966SOL     OW36691   3.484   7.815   4.098
10966SOL    HW136692   3.486   7.739   4.162
10966SOL    HW236693   3.436   7.892   4.138
10967SOL     OW36694   2.885   8.214   4.690
10967SOL    HW136695   2.900   8.235   4.786
10967SOL    HW236696   2.855   8.119   4.681
10968SOL     OW36697   2.842   9.021   5.424
10968SOL    HW136698   2.822   9.065   5.336
10968SOL    HW236699   2.881   8.930   5.408
10969SOL     OW36700   2.212   8.346   5.528
10969SOL    HW136701   2.288   8.390   5.576
10969SOL    HW236702   2.247   8.299   5.446
10970SOL     OW36703   3.402   7.722   3.849
10970SOL    HW136704   3.341   7.647   3.872
10970SOL    HW236705   3.424   7.774   3.932
10971SOL     OW36706   3.165   8.286   3.766
10971SOL    HW136707   3.199   8.193   3.781
10971SOL    HW236708   3.183   8.313   3.671
10972SOL     OW36709   2.930   8.781   4.573
10972SOL    HW136710   2.937   8.697   4.518
10972SOL    HW236711   2.992   8.850   4.537
10973SOL     OW36712   2.181   8.258   4.673
10973SOL    HW136713   2.274   8.294   4.678
10973SOL    HW236714   2.175   8.173   4.725
10974SOL     OW36715   2.201   7.957   4.730
10974SOL    HW136716   2.149   7.874   4.713
10974SOL    HW236717   2.278   7.962   4.666
10975SOL     OW36718   3.000   7.828   5.402
10975SOL    HW136719   2.955   7.891   5.466
10975SOL    HW236720   3.093   7.859   5.385
10976SOL     OW36721   3.022   7.655   5.201
10976SOL    HW136722   3.022   7.719   5.278
10976SOL    HW236723   3.050   7.703   5.118
10977SOL     OW36724   1.870   8.774   3.924
10977SOL    HW136725   1.777   8.795   3.893
10977SOL    HW236726   1.880   8.675   3.937
10978SOL     OW36727   1.950   9.249   4.651
10978SOL    HW136728   1.908   9.163   4.624
10978SOL    HW236729   2.044   9.252   4.617
10979SOL     OW36730   2.366   9.016   4.634
10979SOL    HW136731   2.432   9.090   4.643
10979SOL    HW236732   2.410   8.937   4.592
10980SOL     OW36733   2.864   8.244   4.962
10980SOL    HW136734   2.905   8.212   5.048
10980SOL    HW236735   2.768   8.217   4.959
10981SOL     OW36736   1.902   7.992   4.838
10981SOL    HW136737   1.987   7.959   4.797
10981SOL    HW236738   1.915   8.007   4.936
10982SOL     OW36739   3.231   8.398   5.384
10982SOL    HW136740   3.270   8.487   5.404
10982SOL    HW236741   3.241   8.378   5.287
10983SOL     OW36742   2.677   8.020   4.049
10983SOL    HW136743   2.684   7.931   4.003
10983SOL    HW236744   2.583   8.054   4.041
10984SOL     OW36745   3.519   8.052   4.930
10984SOL    HW136746   3.481   7.983   4.992
10984SOL    HW236747   3.601   8.016   4.886
10985SOL     OW36748   2.114   9.012   5.468
10985SOL    HW136749   2.084   9.069   5.544
10985SOL    HW236750   2.107   8.915   5.494
10986SOL     OW36751   2.533   7.912   4.993
10986SOL    HW136752   2.499   7.823   4.963
10986SOL    HW236753   2.559   7.966   4.913
10987SOL     OW36754   2.792   9.126   5.189
10987SOL    HW136755   2.768   9.108   5.094
10987SOL    HW236756   2.822   9.220   5.199
10988SOL     OW36757   2.335   7.948   3.915
10988SOL    HW136758   2.396   8.028   3.919
10988SOL    HW236759   2.240   7.979   3.922
10989SOL     OW36760   2.021   8.585   5.190
10989SOL    HW136761   2.043   8.524   5.266
10989SOL    HW236762   2.031   8.536   5.104
10990SOL     OW36763   3.209   8.507   4.958
10990SOL    HW136764   3.233   8.444   4.884
10990SOL    HW236765   3.119   8.547   4.940
10991SOL     OW36766   3.164   8.303   4.033
10991SOL    HW136767   3.078   8.272   4.075
10991SOL    HW236768   3.160   8.289   3.934
10992SOL     OW36769   3.621   9.195   4.878
10992SOL    HW136770   3.682   9.225   4.805
10992SOL    HW236771   3.583   9.106   4.856
10993SOL     OW36772   3.114   9.179   4.852
10993SOL    HW136773   3.198   9.184   4.798
10993SOL    HW236774   3.091   9.083   4.870
10994SOL     OW36775   1.945   8.706   4.746
10994SOL    HW136776   1.940   8.705   4.846
10994SOL    HW236777   1.862   8.665   4.708
10995SOL     OW36778   2.550   9.110   5.440
10995SOL    HW136779   2.494   9.191   5.449
10995SOL    HW236780   2.602   9.114   5.354
10996SOL     OW36781   3.588   7.583   4.247
10996SOL    HW136782   3.661   7.566   4.180
10996SOL    HW236783   3.557   7.496   4.285
10997SOL     OW36784   3.250   9.021   4.201
10997SOL    HW136785   3.317   9.033   4.127
10997SOL    HW236786   3.210   9.110   4.224
10998SOL     OW36787   1.992   9.242   5.575
10998SOL    HW136788   1.951   9.168   5.628
10998SOL    HW236789   2.056   9.293   5.633
10999SOL     OW36790   3.142   8.375   4.396
10999SOL    HW136791   3.202   8.294   4.398
10999SOL    HW236792   3.182   8.444   4.336
11000SOL     OW36793   2.692   8.721   5.146
11000SOL    HW136794   2.687   8.754   5.241
11000SOL    HW236795   2.606   8.740   5.100
11001SOL     OW36796   3.512   9.168   5.118
11001SOL    HW136797   3.565   9.178   5.034
11001SOL    HW236798   3.485   9.258   5.152
11002SOL     OW36799   3.703   7.623   4.687
11002SOL    HW136800   3.742   7.538   4.651
11002SOL    HW236801   3.605   7.625   4.668
11003SOL     OW36802   2.125   7.774   4.444
11003SOL    HW136803   2.046   7.825   4.410
11003SOL    HW236804   2.116   7.759   4.542
11004SOL     OW36805   3.056   9.060   3.755
11004SOL    HW136806   3.062   8.967   3.792
11004SOL    HW236807   2.997   9.060   3.675
11005SOL     OW36808   2.684   8.450   5.096
11005SOL    HW136809   2.724   8.449   5.004
11005SOL    HW236810   2.694   8.542   5.136
11006SOL     OW36811   2.778   8.358   4.015
11006SOL    HW136812   2.841   8.396   3.947
11006SOL    HW236813   2.818   8.275   4.054
11007SOL     OW36814   3.366   9.055   3.768
11007SOL    HW136815   3.274   9.092   3.775
11007SOL    HW236816   3.404   9.075   3.678
11008SOL     OW36817   2.234   8.736   5.214
11008SOL    HW136818   2.221   8.829   5.180
11008SOL    HW236819   2.150   8.684   5.201
11009SOL     OW36820   3.476   8.740   5.013
11009SOL    HW136821   3.536   8.743   5.093
11009SOL    HW236822   3.401   8.804   5.026
11010SOL     OW36823   2.901   8.546   4.420
11010SOL    HW136824   2.831   8.499   4.474
11010SOL    HW236825   2.960   8.478   4.377
11011SOL     OW36826   2.876   7.684   4.695
11011SOL    HW136827   2.868   7.648   4.602
11011SOL    HW236828   2.874   7.608   4.760
11012SOL     OW36829   2.452   8.935   4.215
11012SOL    HW136830   2.494   8.877   4.145
11012SOL    HW236831   2.408   9.014   4.171
11013SOL     OW36832   3.571   7.833   5.105
11013SOL    HW136833   3.644   7.902   5.109
11013SOL    HW236834   3.599   7.758   5.046
11014SOL     OW36835   2.117   8.796   4.014
11014SOL    HW136836   2.021   8.797   3.987
11014SOL    HW236837   2.129   8.849   4.098
11015SOL     OW36838   1.967   8.461   5.450
11015SOL    HW136839   1.890   8.428   5.504
11015SOL    HW236840   2.052   8.431   5.492
11016SOL     OW36841   2.534   7.651   5.213
11016SOL    HW136842   2.624   7.635   5.173
11016SOL    HW236843   2.542   7.656   5.312
11017SOL     OW36844   1.937   7.793   3.757
11017SOL    HW136845   1.845   7.765   3.728
11017SOL    HW236846   1.968   7.870   3.701
11018SOL     OW36847   3.302   8.304   5.122
11018SOL    HW136848   3.245   8.356   5.059
11018SOL    HW236849   3.398   8.316   5.098
11019SOL     OW36850   1.934   7.614   4.042
11019SOL    HW136851   1.917   7.697   3.988
11019SOL    HW236852   2.024   7.577   4.020
11020SOL     OW36853   3.045   8.783   3.843
11020SOL    HW136854   2.946   8.772   3.845
11020SOL    HW236855   3.079   8.798   3.936
11021SOL     OW36856   2.475   8.290   5.155
11021SOL    HW136857   2.531   8.371   5.138
11021SOL    HW236858   2.534   8.210   5.158
11022SOL     OW36859   3.355   9.215   4.683
11022SOL    HW136860   3.388   9.279   4.614
11022SOL    HW236861   3.421   9.209   4.758
11023SOL     OW36862   2.578   8.013   5.432
11023SOL    HW136863   2.597   8.078   5.506
11023SOL    HW236864   2.638   7.933   5.441
11024SOL     OW36865   3.312   8.668   5.357
11024SOL    HW136866   3.303   8.658   5.456
11024SOL    HW236867   3.408   8.661   5.331
11025SOL     OW36868   3.536   8.331   4.978
11025SOL    HW136869   3.509   8.242   4.941
11025SOL    HW236870   3.537   8.399   4.905
11026SOL     OW36871   3.087   7.773   4.173
11026SOL    HW136872   3.152   7.699   4.162
11026SOL    HW236873   3.107   7.823   4.257
11027SOL     OW36874   2.456   8.193   4.376
11027SOL    HW136875   2.506   8.278   4.357
11027SOL    HW236876   2.368   8.195   4.328
11028SOL     OW36877   3.639   7.790   5.366
11028SOL    HW136878   3.622   7.821   5.272
11028SOL    HW236879   3.555   7.753   5.404
11029SOL     OW36880   3.592   8.382   5.241
11029SOL    HW136881   3.630   8.473   5.256
11029SOL    HW236882   3.584   8.365   5.142
11030SOL     OW36883   2.721   8.822   3.740
11030SOL    HW136884   2.675   8.837   3.828
11030SOL    HW236885   2.765   8.907   3.710
11031SOL     OW36886   2.523   9.238   4.677
11031SOL    HW136887   2.477   9.326   4.664
11031SOL    HW236888   2.622   9.250   4.670
11032SOL     OW36889   2.721   8.404   4.585
11032SOL    HW136890   2.775   8.335   4.633
11032SOL    HW236891   2.689   8.473   4.651
11033SOL     OW36892   2.945   8.432   3.811
11033SOL    HW136893   2.922   8.485   3.729
11033SOL    HW236894   3.026   8.376   3.792
11034SOL     OW36895   3.723   9.017   4.575
11034SOL    HW136896   3.652   9.005   4.505
11034SOL    HW236897   3.724   8.938   4.635
11035SOL     OW36898   2.083   8.762   5.568
11035SOL    HW136899   2.018   8.689   5.547
11035SOL    HW236900   2.087   8.776   5.666
11036SOL     OW36901   1.941   8.688   4.377
11036SOL    HW136902   1.940   8.641   4.465
11036SOL    HW236903   2.023   8.660   4.326
11037SOL     OW36904   2.534   8.839   5.348
11037SOL    HW136905   2.456   8.789   5.386
11037SOL    HW236906   2.531   8.934   5.379
11038SOL     OW36907   3.686   7.640   4.951
11038SOL    HW136908   3.682   7.550   4.995
11038SOL    HW236909   3.689   7.629   4.852
11039SOL     OW36910   2.290   7.872   4.244
11039SOL    HW136911   2.320   7.800   4.182
11039SOL    HW236912   2.251   7.832   4.327
11040SOL     OW36913   3.567   8.935   4.828
11040SOL    HW136914   3.474   8.910   4.801
11040SOL    HW236915   3.593   8.885   4.910
11041SOL     OW36916   2.179   7.995   5.004
11041SOL    HW136917   2.217   7.936   5.076
11041SOL    HW236918   2.219   7.969   4.916
11042SOL     OW36919   2.674   9.034   4.411
11042SOL    HW136920   2.706   9.044   4.317
11042SOL    HW236921   2.595   8.972   4.413
11043SOL     OW36922   3.286   7.662   4.836
11043SOL    HW136923   3.338   7.597   4.891
11043SOL    HW236924   3.237   7.725   4.897
11044SOL     OW36925   2.863   7.482   4.878
11044SOL    HW136926   2.800   7.410   4.847
11044SOL    HW236927   2.956   7.446   4.878
11045SOL     OW36928   2.480   9.015   5.008
11045SOL    HW136929   2.475   9.097   5.065
11045SOL    HW236930   2.569   9.012   4.963
11046SOL     OW36931   3.214   7.500   3.892
11046SOL    HW136932   3.249   7.459   3.808
11046SOL    HW236933   3.124   7.462   3.912
11047SOL     OW36934   3.162   7.901   4.415
11047SOL    HW136935   3.103   7.981   4.419
11047SOL    HW236936   3.177   7.866   4.508
11048SOL     OW36937   3.455   7.669   4.606
11048SOL    HW136938   3.371   7.668   4.660
11048SOL    HW236939   3.457   7.752   4.550
11049SOL     OW36940   1.901   8.525   4.024
11049SOL    HW136941   2.000   8.514   4.015
11049SOL    HW236942   1.861   8.439   4.056
11050SOL     OW36943   2.087   7.723   6.582
11050SOL    HW136944   2.122   7.706   6.674
11050SOL    HW236945   1.999   7.678   6.570
11051SOL     OW36946   1.881   7.816   6.233
11051SOL    HW136947   1.799   7.859   6.272
11051SOL    HW236948   1.853   7.743   6.170
11052SOL     OW36949   2.431   8.723   6.751
11052SOL    HW136950   2.338   8.716   6.714
11052SOL    HW236951   2.442   8.812   6.795
11053SOL     OW36952   3.417   8.959   6.289
11053SOL    HW136953   3.360   8.943   6.370
11053SOL    HW236954   3.358   8.969   6.209
11054SOL     OW36955   2.997   8.151   6.303
11054SOL    HW136956   3.054   8.229   6.278
11054SOL    HW236957   2.937   8.177   6.379
11055SOL     OW36958   3.617   8.055   5.817
11055SOL    HW136959   3.605   8.042   5.718
11055SOL    HW236960   3.587   7.974   5.866
11056SOL     OW36961   2.712   8.246   7.409
11056SOL    HW136962   2.708   8.322   7.474
11056SOL    HW236963   2.734   8.282   7.318
11057SOL     OW36964   2.548   8.609   7.389
11057SOL    HW136965   2.608   8.688   7.403
11057SOL    HW236966   2.462   8.640   7.348
11058SOL     OW36967   2.197   8.883   6.647
11058SOL    HW136968   2.119   8.852   6.594
11058SOL    HW236969   2.255   8.941   6.590
11059SOL     OW36970   3.322   8.953   6.925
11059SOL    HW136971   3.346   9.047   6.951
11059SOL    HW236972   3.306   8.899   7.007
11060SOL     OW36973   2.300   7.840   7.085
11060SOL    HW136974   2.382   7.784   7.094
11060SOL    HW236975   2.219   7.782   7.089
11061SOL     OW36976   3.465   7.895   6.323
11061SOL    HW136977   3.391   7.941   6.273
11061SOL    HW236978   3.516   7.963   6.376
11062SOL     OW36979   2.093   9.161   6.069
11062SOL    HW136980   2.127   9.238   6.123
11062SOL    HW236981   2.137   9.161   5.979
11063SOL     OW36982   2.989   8.789   7.276
11063SOL    HW136983   3.036   8.789   7.364
11063SOL    HW236984   2.941   8.702   7.265
11064SOL     OW36985   2.092   8.882   6.124
11064SOL    HW136986   2.066   8.978   6.124
11064SOL    HW236987   2.021   8.828   6.169
11065SOL     OW36988   2.102   8.539   6.472
11065SOL    HW136989   2.116   8.455   6.524
11065SOL    HW236990   2.047   8.603   6.527
11066SOL     OW36991   2.482   9.234   7.025
11066SOL    HW136992   2.390   9.217   7.060
11066SOL    HW236993   2.510   9.326   7.051
11067SOL     OW36994   2.468   8.412   5.709
11067SOL    HW136995   2.475   8.496   5.655
11067SOL    HW236996   2.514   8.425   5.797
11068SOL     OW36997   3.456   7.562   7.066
11068SOL    HW136998   3.438   7.629   6.994
11068SOL    HW236999   3.453   7.608   7.155
11069SOL     OW37000   1.984   8.091   6.149
11069SOL    HW137001   1.939   8.003   6.166
11069SOL    HW237002   1.983   8.145   6.233
11070SOL     OW37003   3.704   9.215   5.945
11070SOL    HW137004   3.758   9.186   6.025
11070SOL    HW237005   3.734   9.305   5.916
11071SOL     OW37006   1.889   9.044   5.703
11071SOL    HW137007   1.870   8.948   5.724
11071SOL    HW237008   1.856   9.102   5.778
11072SOL     OW37009   3.551   8.370   6.198
11072SOL    HW137010   3.646   8.341   6.206
11072SOL    HW237011   3.543   8.435   6.123
11073SOL     OW37012   3.503   8.556   6.018
11073SOL    HW137013   3.589   8.558   5.966
11073SOL    HW237014   3.517   8.603   6.106
11074SOL     OW37015   1.975   8.185   7.183
11074SOL    HW137016   2.063   8.172   7.228
11074SOL    HW237017   1.962   8.282   7.161
11075SOL     OW37018   3.155   8.676   7.009
11075SOL    HW137019   3.192   8.603   6.951
11075SOL    HW237020   3.207   8.681   7.094
11076SOL     OW37021   2.671   7.452   6.088
11076SOL    HW137022   2.711   7.543   6.079
11076SOL    HW237023   2.571   7.460   6.094
11077SOL     OW37024   2.059   8.424   6.850
11077SOL    HW137025   2.148   8.379   6.836
11077SOL    HW237026   1.986   8.359   6.831
11078SOL     OW37027   3.387   8.447   5.776
11078SOL    HW137028   3.324   8.371   5.789
11078SOL    HW237029   3.435   8.465   5.862
11079SOL     OW37030   3.049   9.240   7.202
11079SOL    HW137031   3.073   9.300   7.126
11079SOL    HW237032   3.056   9.145   7.172
11080SOL     OW37033   2.179   7.699   7.387
11080SOL    HW137034   2.250   7.770   7.393
11080SOL    HW237035   2.091   7.738   7.415
11081SOL     OW37036   3.328   8.865   6.539
11081SOL    HW137037   3.269   8.871   6.619
11081SOL    HW237038   3.313   8.777   6.493
11082SOL     OW37039   3.529   9.162   6.158
11082SOL    HW137040   3.488   9.139   6.070
11082SOL    HW237041   3.511   9.088   6.223
11083SOL     OW37042   2.460   8.177   5.856
11083SOL    HW137043   2.484   8.246   5.788
11083SOL    HW237044   2.382   8.210   5.910
11084SOL     OW37045   3.143   7.793   6.530
11084SOL    HW137046   3.057   7.743   6.517
11084SOL    HW237047   3.205   7.739   6.586
11085SOL     OW37048   3.438   9.110   5.893
11085SOL    HW137049   3.527   9.156   5.896
11085SOL    HW237050   3.417   9.086   5.798
11086SOL     OW37051   2.669   8.053   7.051
11086SOL    HW137052   2.622   8.050   7.140
11086SOL    HW237053   2.618   7.998   6.985
11087SOL     OW37054   2.835   8.338   7.158
11087SOL    HW137055   2.881   8.254   7.129
11087SOL    HW237056   2.779   8.372   7.083
11088SOL     OW37057   2.853   7.858   6.828
11088SOL    HW137058   2.776   7.892   6.882
11088SOL    HW237059   2.819   7.807   6.749
11089SOL     OW37060   2.903   8.149   6.015
11089SOL    HW137061   2.929   8.145   6.111
11089SOL    HW237062   2.818   8.098   6.001
11090SOL     OW37063   1.938   8.259   6.375
11090SOL    HW137064   2.037   8.247   6.384
11090SOL    HW237065   1.914   8.354   6.396
11091SOL     OW37066   1.992   9.269   7.157
11091SOL    HW137067   1.982   9.254   7.256
11091SOL    HW237068   1.906   9.305   7.121
11092SOL     OW37069   2.727   7.796   5.781
11092SOL    HW137070   2.786   7.859   5.732
11092SOL    HW237071   2.746   7.702   5.752
11093SOL     OW37072   3.224   8.592   6.131
11093SOL    HW137073   3.307   8.563   6.083
11093SOL    HW237074   3.175   8.659   6.075
11094SOL     OW37075   2.412   7.644   6.471
11094SOL    HW137076   2.407   7.639   6.571
11094SOL    HW237077   2.414   7.740   6.442
11095SOL     OW37078   2.870   8.904   6.063
11095SOL    HW137079   2.824   8.976   6.011
11095SOL    HW237080   2.866   8.924   6.161
11096SOL     OW37081   2.213   9.249   6.439
11096SOL    HW137082   2.263   9.163   6.445
11096SOL    HW237083   2.278   9.326   6.436
11097SOL     OW37084   3.657   8.514   6.459
11097SOL    HW137085   3.595   8.499   6.383
11097SOL    HW237086   3.605   8.525   6.544
11098SOL     OW37087   3.089   8.998   7.092
11098SOL    HW137088   3.095   8.921   7.156
11098SOL    HW237089   3.037   8.972   7.012
11099SOL     OW37090   2.183   8.391   5.828
11099SOL    HW137091   2.265   8.430   5.786
11099SOL    HW237092   2.156   8.309   5.779
11100SOL     OW37093   3.320   8.183   6.314
11100SOL    HW137094   3.315   8.118   6.389
11100SOL    HW237095   3.400   8.242   6.327
11101SOL     OW37096   2.323   8.714   7.313
11101SOL    HW137097   2.273   8.715   7.227
11101SOL    HW237098   2.260   8.696   7.389
11102SOL     OW37099   2.973   9.224   5.823
11102SOL    HW137100   2.913   9.162   5.873
11102SOL    HW237101   3.004   9.180   5.738
11103SOL     OW37102   2.064   7.733   7.084
11103SOL    HW137103   1.984   7.793   7.071
11103SOL    HW237104   2.054   7.684   7.170
11104SOL     OW37105   3.494   8.825   5.667
11104SOL    HW137106   3.462   8.919   5.657
11104SOL    HW237107   3.418   8.762   5.655
11105SOL     OW37108   2.326   9.191   5.909
11105SOL    HW137109   2.359   9.230   5.995
11105SOL    HW237110   2.402   9.184   5.844
11106SOL     OW37111   3.262   7.555   6.012
11106SOL    HW137112   3.238   7.518   5.922
11106SOL    HW237113   3.361   7.571   6.016
11107SOL     OW37114   2.111   9.233   6.827
11107SOL    HW137115   2.168   9.168   6.877
11107SOL    HW237116   2.095   9.200   6.734
11108SOL     OW37117   2.802   9.146   6.490
11108SOL    HW137118   2.882   9.089   6.511
11108SOL    HW237119   2.753   9.106   6.413
11109SOL     OW37120   2.244   8.148   6.066
11109SOL    HW137121   2.289   8.058   6.063
11109SOL    HW237122   2.150   8.137   6.099
11110SOL     OW37123   3.409   7.670   7.315
11110SOL    HW137124   3.404   7.707   7.407
11110SOL    HW237125   3.337   7.601   7.303
11111SOL     OW37126   2.476   7.570   5.703
11111SOL    HW137127   2.574   7.548   5.710
11111SOL    HW237128   2.445   7.553   5.610
11112SOL     OW37129   2.643   7.712   7.335
11112SOL    HW137130   2.710   7.651   7.378
11112SOL    HW237131   2.570   7.731   7.400
11113SOL     OW37132   2.750   8.962   6.781
11113SOL    HW137133   2.727   8.937   6.687
11113SOL    HW237134   2.811   8.893   6.820
11114SOL     OW37135   3.213   8.038   7.019
11114SOL    HW137136   3.241   7.995   7.104
11114SOL    HW237137   3.238   8.134   7.020
11115SOL     OW37138   2.784   7.951   6.485
11115SOL    HW137139   2.759   7.942   6.389
11115SOL    HW237140   2.832   7.869   6.516
11116SOL     OW37141   2.401   7.512   6.098
11116SOL    HW137142   2.320   7.513   6.156
11116SOL    HW237143   2.404   7.595   6.043
11117SOL     OW37144   3.296   8.636   5.627
11117SOL    HW137145   3.328   8.560   5.684
11117SOL    HW237146   3.204   8.663   5.657
11118SOL     OW37147   2.159   7.483   5.757
11118SOL    HW137148   2.208   7.567   5.736
11118SOL    HW237149   2.221   7.418   5.802
11119SOL     OW37150   2.797   7.684   6.066
11119SOL    HW137151   2.749   7.725   5.988
11119SOL    HW237152   2.896   7.682   6.047
11120SOL     OW37153   2.938   8.131   7.050
11120SOL    HW137154   2.858   8.070   7.053
11120SOL    HW237155   3.019   8.078   7.026
11121SOL     OW37156   3.089   9.018   6.379
11121SOL    HW137157   3.110   9.092   6.314
11121SOL    HW237158   3.157   9.018   6.452
11122SOL     OW37159   3.133   9.245   6.177
11122SOL    HW137160   3.177   9.309   6.113
11122SOL    HW237161   3.083   9.297   6.247
11123SOL     OW37162   2.894   7.997   5.602
11123SOL    HW137163   2.853   8.079   5.563
11123SOL    HW237164   2.958   8.023   5.675
11124SOL     OW37165   1.940   8.004   6.972
11124SOL    HW137166   2.032   8.003   6.931
11124SOL    HW237167   1.934   8.078   7.039
11125SOL     OW37168   2.423   7.670   6.733
11125SOL    HW137169   2.461   7.586   6.770
11125SOL    HW237170   2.335   7.689   6.777
11126SOL     OW37171   2.728   7.902   6.228
11126SOL    HW137172   2.696   7.974   6.166
11126SOL    HW237173   2.752   7.821   6.175
11127SOL     OW37174   2.879   7.487   6.339
11127SOL    HW137175   2.807   7.492   6.270
11127SOL    HW237176   2.855   7.418   6.408
11128SOL     OW37177   3.291   8.621   6.453
11128SOL    HW137178   3.236   8.537   6.446
11128SOL    HW237179   3.317   8.650   6.361
11129SOL     OW37180   3.328   8.038   6.578
11129SOL    HW137181   3.298   7.943   6.585
11129SOL    HW237182   3.401   8.054   6.644
11130SOL     OW37183   3.719   8.281   5.963
11130SOL    HW137184   3.761   8.217   6.027
11130SOL    HW237185   3.681   8.230   5.885
11131SOL     OW37186   2.350   8.833   5.760
11131SOL    HW137187   2.263   8.818   5.807
11131SOL    HW237188   2.333   8.859   5.665
11132SOL     OW37189   3.526   8.728   6.243
11132SOL    HW137190   3.625   8.736   6.257
11132SOL    HW237191   3.481   8.812   6.274
11133SOL     OW37192   3.252   8.023   5.664
11133SOL    HW137193   3.198   8.002   5.745
11133SOL    HW237194   3.343   7.982   5.673
11134SOL     OW37195   2.389   7.704   5.914
11134SOL    HW137196   2.416   7.645   5.839
11134SOL    HW237197   2.389   7.799   5.883
11135SOL     OW37198   3.616   8.671   7.174
11135SOL    HW137199   3.707   8.632   7.161
11135SOL    HW237200   3.624   8.767   7.198
11136SOL     OW37201   2.926   8.795   6.926
11136SOL    HW137202   2.846   8.772   6.981
11136SOL    HW237203   3.009   8.769   6.975
11137SOL     OW37204   3.454   9.077   7.211
11137SOL    HW137205   3.481   9.111   7.121
11137SOL    HW237206   3.533   9.039   7.257
11138SOL     OW37207   2.973   8.643   6.686
11138SOL    HW137208   2.933   8.687   6.767
11138SOL    HW237209   2.932   8.680   6.603
11139SOL     OW37210   3.500   8.547   6.665
11139SOL    HW137211   3.505   8.628   6.724
11139SOL    HW237212   3.414   8.549   6.614
11140SOL     OW37213   2.777   7.537   6.988
11140SOL    HW137214   2.802   7.517   6.893
11140SOL    HW237215   2.849   7.593   7.030
11141SOL     OW37216   2.842   8.564   7.305
11141SOL    HW137217   2.743   8.570   7.315
11141SOL    HW237218   2.865   8.484   7.249
11142SOL     OW37219   2.272   8.261   6.837
11142SOL    HW137220   2.358   8.273   6.887
11142SOL    HW237221   2.230   8.174   6.864
11143SOL     OW37222   3.136   7.834   6.848
11143SOL    HW137223   3.157   7.908   6.912
11143SOL    HW237224   3.047   7.851   6.805
11144SOL     OW37225   1.926   9.012   6.917
11144SOL    HW137226   1.880   9.094   6.883
11144SOL    HW237227   2.024   9.031   6.926
11145SOL     OW37228   2.229   8.548   6.087
11145SOL    HW137229   2.222   8.631   6.031
11145SOL    HW237230   2.233   8.468   6.027
11146SOL     OW37231   2.428   7.985   6.451
11146SOL    HW137232   2.440   8.051   6.377
11146SOL    HW237233   2.474   8.019   6.534
11147SOL     OW37234   3.114   8.796   5.974
11147SOL    HW137235   3.164   8.873   6.014
11147SOL    HW237236   3.019   8.798   6.006
11148SOL     OW37237   3.134   8.893   6.728
11148SOL    HW137238   3.181   8.906   6.815
11148SOL    HW237239   3.068   8.819   6.737
11149SOL     OW37240   3.444   8.087   6.058
11149SOL    HW137241   3.413   8.148   6.131
11149SOL    HW237242   3.494   8.139   5.989
11150SOL     OW37243   2.216   8.958   6.915
11150SOL    HW137244   2.195   8.914   6.828
11150SOL    HW237245   2.313   8.984   6.918
11151SOL     OW37246   2.264   8.199   7.184
11151SOL    HW137247   2.332   8.254   7.137
11151SOL    HW237248   2.304   8.111   7.211
11152SOL     OW37249   3.449   8.227   7.256
11152SOL    HW137250   3.357   8.265   7.251
11152SOL    HW237251   3.509   8.274   7.191
11153SOL     OW37252   2.875   7.553   7.356
11153SOL    HW137253   2.881   7.638   7.304
11153SOL    HW237254   2.907   7.477   7.299
11154SOL     OW37255   2.366   7.498   7.326
11154SOL    HW137256   2.324   7.441   7.256
11154SOL    HW237257   2.300   7.567   7.358
11155SOL     OW37258   2.435   8.318   6.615
11155SOL    HW137259   2.479   8.407   6.606
11155SOL    HW237260   2.372   8.318   6.692
11156SOL     OW37261   3.222   8.310   6.631
11156SOL    HW137262   3.147   8.310   6.565
11156SOL    HW237263   3.259   8.218   6.640
11157SOL     OW37264   3.071   7.973   5.861
11157SOL    HW137265   3.084   7.889   5.915
11157SOL    HW237266   3.042   8.047   5.921
11158SOL     OW37267   2.169   7.661   6.817
11158SOL    HW137268   2.146   7.698   6.907
11158SOL    HW237269   2.139   7.566   6.811
11159SOL     OW37270   1.899   8.758   6.868
11159SOL    HW137271   1.952   8.709   6.936
11159SOL    HW237272   1.921   8.856   6.873
11160SOL     OW37273   2.594   8.082   6.650
11160SOL    HW137274   2.653   8.056   6.574
11160SOL    HW237275   2.566   8.178   6.639
11161SOL     OW37276   3.590   8.383   7.440
11161SOL    HW137277   3.544   8.376   7.351
11161SOL    HW237278   3.528   8.427   7.506
11162SOL     OW37279   2.169   7.511   6.204
11162SOL    HW137280   2.158   7.605   6.237
11162SOL    HW237281   2.164   7.448   6.281
11163SOL     OW37282   3.484   7.815   5.960
11163SOL    HW137283   3.486   7.739   6.024
11163SOL    HW237284   3.436   7.892   6.000
11164SOL     OW37285   2.885   8.214   6.552
11164SOL    HW137286   2.900   8.235   6.648
11164SOL    HW237287   2.855   8.119   6.543
11165SOL     OW37288   2.842   9.021   7.286
11165SOL    HW137289   2.822   9.065   7.198
11165SOL    HW237290   2.881   8.930   7.270
11166SOL     OW37291   3.721   8.966   7.191
11166SOL    HW137292   3.735   8.993   7.096
11166SOL    HW237293   3.804   8.988   7.244
11167SOL     OW37294   2.212   8.346   7.390
11167SOL    HW137295   2.288   8.390   7.438
11167SOL    HW237296   2.247   8.299   7.308
11168SOL     OW37297   3.402   7.722   5.711
11168SOL    HW137298   3.341   7.647   5.734
11168SOL    HW237299   3.424   7.774   5.794
11169SOL     OW37300   3.165   8.286   5.628
11169SOL    HW137301   3.199   8.193   5.643
11169SOL    HW237302   3.183   8.313   5.533
11170SOL     OW37303   2.930   8.781   6.435
11170SOL    HW137304   2.937   8.697   6.380
11170SOL    HW237305   2.992   8.850   6.399
11171SOL     OW37306   2.181   8.258   6.535
11171SOL    HW137307   2.274   8.294   6.540
11171SOL    HW237308   2.175   8.173   6.587
11172SOL     OW37309   2.201   7.957   6.592
11172SOL    HW137310   2.149   7.874   6.575
11172SOL    HW237311   2.278   7.962   6.528
11173SOL     OW37312   3.000   7.828   7.264
11173SOL    HW137313   2.955   7.891   7.328
11173SOL    HW237314   3.093   7.859   7.247
11174SOL     OW37315   3.022   7.655   7.063
11174SOL    HW137316   3.022   7.719   7.140
11174SOL    HW237317   3.050   7.703   6.980
11175SOL     OW37318   1.870   8.774   5.786
11175SOL    HW137319   1.777   8.795   5.755
11175SOL    HW237320   1.880   8.675   5.799
11176SOL     OW37321   1.950   9.249   6.513
11176SOL    HW137322   1.908   9.163   6.486
11176SOL    HW237323   2.044   9.252   6.479
11177SOL     OW37324   2.366   9.016   6.496
11177SOL    HW137325   2.432   9.090   6.505
11177SOL    HW237326   2.410   8.937   6.454
11178SOL     OW37327   2.864   8.244   6.824
11178SOL    HW137328   2.905   8.212   6.910
11178SOL    HW237329   2.768   8.217   6.821
11179SOL     OW37330   1.902   7.992   6.700
11179SOL    HW137331   1.987   7.959   6.659
11179SOL    HW237332   1.915   8.007   6.798
11180SOL     OW37333   2.051   7.968   7.308
11180SOL    HW137334   2.110   7.928   7.238
11180SOL    HW237335   1.993   8.039   7.267
11181SOL     OW37336   3.231   8.398   7.246
11181SOL    HW137337   3.270   8.487   7.266
11181SOL    HW237338   3.241   8.378   7.149
11182SOL     OW37339   2.677   8.020   5.911
11182SOL    HW137340   2.684   7.931   5.865
11182SOL    HW237341   2.583   8.054   5.903
11183SOL     OW37342   3.519   8.052   6.792
11183SOL    HW137343   3.481   7.983   6.854
11183SOL    HW237344   3.601   8.016   6.748
11184SOL     OW37345   2.114   9.012   7.330
11184SOL    HW137346   2.084   9.069   7.406
11184SOL    HW237347   2.107   8.915   7.356
11185SOL     OW37348   2.533   7.912   6.855
11185SOL    HW137349   2.499   7.823   6.825
11185SOL    HW237350   2.559   7.966   6.775
11186SOL     OW37351   2.792   9.126   7.051
11186SOL    HW137352   2.768   9.108   6.956
11186SOL    HW237353   2.822   9.220   7.061
11187SOL     OW37354   2.335   7.948   5.777
11187SOL    HW137355   2.396   8.028   5.781
11187SOL    HW237356   2.240   7.979   5.784
11188SOL     OW37357   2.021   8.585   7.052
11188SOL    HW137358   2.043   8.524   7.128
11188SOL    HW237359   2.031   8.536   6.966
11189SOL     OW37360   3.209   8.507   6.820
11189SOL    HW137361   3.233   8.444   6.746
11189SOL    HW237362   3.119   8.547   6.802
11190SOL     OW37363   3.164   8.303   5.895
11190SOL    HW137364   3.078   8.272   5.937
11190SOL    HW237365   3.160   8.289   5.796
11191SOL     OW37366   3.621   9.195   6.740
11191SOL    HW137367   3.682   9.225   6.667
11191SOL    HW237368   3.583   9.106   6.718
11192SOL     OW37369   3.114   9.179   6.714
11192SOL    HW137370   3.198   9.184   6.660
11192SOL    HW237371   3.091   9.083   6.732
11193SOL     OW37372   1.945   8.706   6.608
11193SOL    HW137373   1.940   8.705   6.708
11193SOL    HW237374   1.862   8.665   6.570
11194SOL     OW37375   2.550   9.110   7.302
11194SOL    HW137376   2.494   9.191   7.311
11194SOL    HW237377   2.602   9.114   7.216
11195SOL     OW37378   3.588   7.583   6.109
11195SOL    HW137379   3.661   7.566   6.042
11195SOL    HW237380   3.557   7.496   6.147
11196SOL     OW37381   3.250   9.021   6.063
11196SOL    HW137382   3.317   9.033   5.989
11196SOL    HW237383   3.210   9.110   6.086
11197SOL     OW37384   1.992   9.242   7.437
11197SOL    HW137385   1.951   9.168   7.490
11197SOL    HW237386   2.056   9.293   7.495
11198SOL     OW37387   3.142   8.375   6.258
11198SOL    HW137388   3.202   8.294   6.260
11198SOL    HW237389   3.182   8.444   6.198
11199SOL     OW37390   2.692   8.721   7.008
11199SOL    HW137391   2.687   8.754   7.103
11199SOL    HW237392   2.606   8.740   6.962
11200SOL     OW37393   2.534   9.064   5.740
11200SOL    HW137394   2.543   9.074   5.641
11200SOL    HW237395   2.494   8.975   5.761
11201SOL     OW37396   3.512   9.168   6.980
11201SOL    HW137397   3.565   9.178   6.896
11201SOL    HW237398   3.485   9.258   7.014
11202SOL     OW37399   3.703   7.623   6.549
11202SOL    HW137400   3.742   7.538   6.513
11202SOL    HW237401   3.605   7.625   6.530
11203SOL     OW37402   2.125   7.774   6.306
11203SOL    HW137403   2.046   7.825   6.272
11203SOL    HW237404   2.116   7.759   6.404
11204SOL     OW37405   3.056   9.060   5.617
11204SOL    HW137406   3.062   8.967   5.654
11204SOL    HW237407   2.997   9.060   5.537
11205SOL     OW37408   2.684   8.450   6.958
11205SOL    HW137409   2.724   8.449   6.866
11205SOL    HW237410   2.694   8.542   6.998
11206SOL     OW37411   2.778   8.358   5.877
11206SOL    HW137412   2.841   8.396   5.809
11206SOL    HW237413   2.818   8.275   5.916
11207SOL     OW37414   3.366   9.055   5.630
11207SOL    HW137415   3.274   9.092   5.637
11207SOL    HW237416   3.404   9.075   5.540
11208SOL     OW37417   2.234   8.736   7.076
11208SOL    HW137418   2.221   8.829   7.042
11208SOL    HW237419   2.150   8.684   7.063
11209SOL     OW37420   3.476   8.740   6.875
11209SOL    HW137421   3.536   8.743   6.955
11209SOL    HW237422   3.401   8.804   6.888
11210SOL     OW37423   2.876   7.684   6.557
11210SOL    HW137424   2.868   7.648   6.464
11210SOL    HW237425   2.874   7.608   6.622
11211SOL     OW37426   2.452   8.935   6.077
11211SOL    HW137427   2.494   8.877   6.007
11211SOL    HW237428   2.408   9.014   6.033
11212SOL     OW37429   3.571   7.833   6.967
11212SOL    HW137430   3.644   7.902   6.971
11212SOL    HW237431   3.599   7.758   6.908
11213SOL     OW37432   2.117   8.796   5.876
11213SOL    HW137433   2.021   8.797   5.849
11213SOL    HW237434   2.129   8.849   5.960
11214SOL     OW37435   1.967   8.461   7.312
11214SOL    HW137436   1.890   8.428   7.366
11214SOL    HW237437   2.052   8.431   7.354
11215SOL     OW37438   2.534   7.651   7.075
11215SOL    HW137439   2.624   7.635   7.035
11215SOL    HW237440   2.542   7.656   7.174
11216SOL     OW37441   1.937   7.793   5.619
11216SOL    HW137442   1.845   7.765   5.590
11216SOL    HW237443   1.968   7.870   5.563
11217SOL     OW37444   3.302   8.304   6.984
11217SOL    HW137445   3.245   8.356   6.921
11217SOL    HW237446   3.398   8.316   6.960
11218SOL     OW37447   1.934   7.614   5.904
11218SOL    HW137448   1.917   7.697   5.850
11218SOL    HW237449   2.024   7.577   5.882
11219SOL     OW37450   3.045   8.783   5.705
11219SOL    HW137451   2.946   8.772   5.707
11219SOL    HW237452   3.079   8.798   5.798
11220SOL     OW37453   2.475   8.290   7.017
11220SOL    HW137454   2.531   8.371   7.000
11220SOL    HW237455   2.534   8.210   7.020
11221SOL     OW37456   3.355   9.215   6.545
11221SOL    HW137457   3.388   9.279   6.476
11221SOL    HW237458   3.421   9.209   6.620
11222SOL     OW37459   2.578   8.013   7.294
11222SOL    HW137460   2.597   8.078   7.368
11222SOL    HW237461   2.638   7.933   7.303
11223SOL     OW37462   3.312   8.668   7.219
11223SOL    HW137463   3.303   8.658   7.318
11223SOL    HW237464   3.408   8.661   7.193
11224SOL     OW37465   2.252   9.189   7.146
11224SOL    HW137466   2.161   9.230   7.144
11224SOL    HW237467   2.245   9.095   7.178
11225SOL     OW37468   3.536   8.331   6.840
11225SOL    HW137469   3.509   8.242   6.803
11225SOL    HW237470   3.537   8.399   6.767
11226SOL     OW37471   3.087   7.773   6.035
11226SOL    HW137472   3.152   7.699   6.024
11226SOL    HW237473   3.107   7.823   6.119
11227SOL     OW37474   2.456   8.193   6.238
11227SOL    HW137475   2.506   8.278   6.219
11227SOL    HW237476   2.368   8.195   6.190
11228SOL     OW37477   3.639   7.790   7.228
11228SOL    HW137478   3.622   7.821   7.134
11228SOL    HW237479   3.555   7.753   7.266
11229SOL     OW37480   3.592   8.382   7.103
11229SOL    HW137481   3.630   8.473   7.118
11229SOL    HW237482   3.584   8.365   7.004
11230SOL     OW37483   2.721   8.822   5.602
11230SOL    HW137484   2.675   8.837   5.690
11230SOL    HW237485   2.765   8.907   5.572
11231SOL     OW37486   2.523   9.238   6.539
11231SOL    HW137487   2.477   9.326   6.526
11231SOL    HW237488   2.622   9.250   6.532
11232SOL     OW37489   2.721   8.404   6.447
11232SOL    HW137490   2.775   8.335   6.495
11232SOL    HW237491   2.689   8.473   6.513
11233SOL     OW37492   2.945   8.432   5.673
11233SOL    HW137493   2.922   8.485   5.591
11233SOL    HW237494   3.026   8.376   5.654
11234SOL     OW37495   3.723   9.017   6.437
11234SOL    HW137496   3.652   9.005   6.367
11234SOL    HW237497   3.724   8.938   6.497
11235SOL     OW37498   2.083   8.762   7.430
11235SOL    HW137499   2.018   8.689   7.409
11235SOL    HW237500   2.087   8.776   7.528
11236SOL     OW37501   1.941   8.688   6.239
11236SOL    HW137502   1.940   8.641   6.327
11236SOL    HW237503   2.023   8.660   6.188
11237SOL     OW37504   2.534   8.839   7.210
11237SOL    HW137505   2.456   8.789   7.248
11237SOL    HW237506   2.531   8.934   7.241
11238SOL     OW37507   3.686   7.640   6.813
11238SOL    HW137508   3.682   7.550   6.857
11238SOL    HW237509   3.689   7.629   6.714
11239SOL     OW37510   2.290   7.872   6.106
11239SOL    HW137511   2.320   7.800   6.044
11239SOL    HW237512   2.251   7.832   6.189
11240SOL     OW37513   3.567   8.935   6.690
11240SOL    HW137514   3.474   8.910   6.663
11240SOL    HW237515   3.593   8.885   6.772
11241SOL     OW37516   2.179   7.995   6.866
11241SOL    HW137517   2.217   7.936   6.938
11241SOL    HW237518   2.219   7.969   6.778
11242SOL     OW37519   2.674   9.034   6.273
11242SOL    HW137520   2.706   9.044   6.179
11242SOL    HW237521   2.595   8.972   6.275
11243SOL     OW37522   3.286   7.662   6.698
11243SOL    HW137523   3.338   7.597   6.753
11243SOL    HW237524   3.237   7.725   6.759
11244SOL     OW37525   2.863   7.482   6.740
11244SOL    HW137526   2.800   7.410   6.709
11244SOL    HW237527   2.956   7.446   6.740
11245SOL     OW37528   2.632   8.778   5.887
11245SOL    HW137529   2.586   8.691   5.904
11245SOL    HW237530   2.723   8.775   5.928
11246SOL     OW37531   2.480   9.015   6.870
11246SOL    HW137532   2.475   9.097   6.927
11246SOL    HW237533   2.569   9.012   6.825
11247SOL     OW37534   3.214   7.500   5.754
11247SOL    HW137535   3.249   7.459   5.670
11247SOL    HW237536   3.124   7.462   5.774
11248SOL     OW37537   3.162   7.901   6.277
11248SOL    HW137538   3.103   7.981   6.281
11248SOL    HW237539   3.177   7.866   6.370
11249SOL     OW37540   3.455   7.669   6.468
11249SOL    HW137541   3.371   7.668   6.522
11249SOL    HW237542   3.457   7.752   6.412
11250SOL     OW37543   1.901   8.525   5.886
11250SOL    HW137544   2.000   8.514   5.877
11250SOL    HW237545   1.861   8.439   5.918
11251SOL     OW37546   2.737   9.094   5.923
11251SOL    HW137547   2.660   9.059   5.869
11251SOL    HW237548   2.705   9.165   5.985
11252SOL     OW37549   2.092   8.076   7.561
11252SOL    HW137550   1.999   8.074   7.598
11252SOL    HW237551   2.093   8.037   7.469
11253SOL     OW37552   2.087   7.723   8.444
11253SOL    HW137553   2.122   7.706   8.536
11253SOL    HW237554   1.999   7.678   8.432
11254SOL     OW37555   1.881   7.816   8.095
11254SOL    HW137556   1.799   7.859   8.134
11254SOL    HW237557   1.853   7.743   8.032
11255SOL     OW37558   2.431   8.723   8.613
11255SOL    HW137559   2.338   8.716   8.576
11255SOL    HW237560   2.442   8.812   8.657
11256SOL     OW37561   3.417   8.959   8.151
11256SOL    HW137562   3.360   8.943   8.232
11256SOL    HW237563   3.358   8.969   8.071
11257SOL     OW37564   2.997   8.151   8.165
11257SOL    HW137565   3.054   8.229   8.140
11257SOL    HW237566   2.937   8.177   8.241
11258SOL     OW37567   3.617   8.055   7.679
11258SOL    HW137568   3.605   8.042   7.580
11258SOL    HW237569   3.587   7.974   7.728
11259SOL     OW37570   2.630   8.592   8.471
11259SOL    HW137571   2.552   8.609   8.531
11259SOL    HW237572   2.664   8.679   8.435
11260SOL     OW37573   2.712   8.246   9.271
11260SOL    HW137574   2.708   8.322   9.336
11260SOL    HW237575   2.734   8.282   9.180
11261SOL     OW37576   2.548   8.609   9.251
11261SOL    HW137577   2.608   8.688   9.265
11261SOL    HW237578   2.462   8.640   9.210
11262SOL     OW37579   2.197   8.883   8.509
11262SOL    HW137580   2.119   8.852   8.456
11262SOL    HW237581   2.255   8.941   8.452
11263SOL     OW37582   3.322   8.953   8.787
11263SOL    HW137583   3.346   9.047   8.813
11263SOL    HW237584   3.306   8.899   8.869
11264SOL     OW37585   2.300   7.840   8.947
11264SOL    HW137586   2.382   7.784   8.956
11264SOL    HW237587   2.219   7.782   8.951
11265SOL     OW37588   3.465   7.895   8.185
11265SOL    HW137589   3.391   7.941   8.135
11265SOL    HW237590   3.516   7.963   8.238
11266SOL     OW37591   2.093   9.161   7.931
11266SOL    HW137592   2.127   9.238   7.985
11266SOL    HW237593   2.137   9.161   7.841
11267SOL     OW37594   2.989   8.789   9.138
11267SOL    HW137595   3.036   8.789   9.226
11267SOL    HW237596   2.941   8.702   9.127
11268SOL     OW37597   2.092   8.882   7.986
11268SOL    HW137598   2.066   8.978   7.986
11268SOL    HW237599   2.021   8.828   8.031
11269SOL     OW37600   2.102   8.539   8.334
11269SOL    HW137601   2.116   8.455   8.386
11269SOL    HW237602   2.047   8.603   8.389
11270SOL     OW37603   2.482   9.234   8.887
11270SOL    HW137604   2.390   9.217   8.922
11270SOL    HW237605   2.510   9.326   8.913
11271SOL     OW37606   3.456   7.562   8.928
11271SOL    HW137607   3.438   7.629   8.856
11271SOL    HW237608   3.453   7.608   9.017
11272SOL     OW37609   1.984   8.091   8.011
11272SOL    HW137610   1.939   8.003   8.028
11272SOL    HW237611   1.983   8.145   8.095
11273SOL     OW37612   3.704   9.215   7.807
11273SOL    HW137613   3.758   9.186   7.887
11273SOL    HW237614   3.734   9.305   7.778
11274SOL     OW37615   1.889   9.044   7.565
11274SOL    HW137616   1.870   8.948   7.586
11274SOL    HW237617   1.856   9.102   7.640
11275SOL     OW37618   3.551   8.370   8.060
11275SOL    HW137619   3.646   8.341   8.068
11275SOL    HW237620   3.543   8.435   7.985
11276SOL     OW37621   3.503   8.556   7.880
11276SOL    HW137622   3.589   8.558   7.828
11276SOL    HW237623   3.517   8.603   7.968
11277SOL     OW37624   1.975   8.185   9.045
11277SOL    HW137625   2.063   8.172   9.090
11277SOL    HW237626   1.962   8.282   9.023
11278SOL     OW37627   2.475   8.813   8.174
11278SOL    HW137628   2.426   8.726   8.183
11278SOL    HW237629   2.452   8.856   8.087
11279SOL     OW37630   3.155   8.676   8.871
11279SOL    HW137631   3.192   8.603   8.813
11279SOL    HW237632   3.207   8.681   8.956
11280SOL     OW37633   2.671   7.452   7.950
11280SOL    HW137634   2.711   7.543   7.941
11280SOL    HW237635   2.571   7.460   7.956
11281SOL     OW37636   2.059   8.424   8.712
11281SOL    HW137637   2.148   8.379   8.698
11281SOL    HW237638   1.986   8.359   8.693
11282SOL     OW37639   3.387   8.447   7.638
11282SOL    HW137640   3.324   8.371   7.651
11282SOL    HW237641   3.435   8.465   7.724
11283SOL     OW37642   3.049   9.240   9.064
11283SOL    HW137643   3.073   9.300   8.988
11283SOL    HW237644   3.056   9.145   9.034
11284SOL     OW37645   2.179   7.699   9.249
11284SOL    HW137646   2.250   7.770   9.255
11284SOL    HW237647   2.091   7.738   9.277
11285SOL     OW37648   3.328   8.865   8.401
11285SOL    HW137649   3.269   8.871   8.481
11285SOL    HW237650   3.313   8.777   8.355
11286SOL     OW37651   3.529   9.162   8.020
11286SOL    HW137652   3.488   9.139   7.932
11286SOL    HW237653   3.511   9.088   8.085
11287SOL     OW37654   3.143   7.793   8.392
11287SOL    HW137655   3.057   7.743   8.379
11287SOL    HW237656   3.205   7.739   8.448
11288SOL     OW37657   3.438   9.110   7.755
11288SOL    HW137658   3.527   9.156   7.758
11288SOL    HW237659   3.417   9.086   7.660
11289SOL     OW37660   2.669   8.053   8.913
11289SOL    HW137661   2.622   8.050   9.002
11289SOL    HW237662   2.618   7.998   8.847
11290SOL     OW37663   3.256   7.917   9.122
11290SOL    HW137664   3.236   7.960   9.210
11290SOL    HW237665   3.334   7.855   9.131
11291SOL     OW37666   2.835   8.338   9.020
11291SOL    HW137667   2.881   8.254   8.991
11291SOL    HW237668   2.779   8.372   8.945
11292SOL     OW37669   2.853   7.858   8.690
11292SOL    HW137670   2.776   7.892   8.744
11292SOL    HW237671   2.819   7.807   8.611
11293SOL     OW37672   2.903   8.149   7.877
11293SOL    HW137673   2.929   8.145   7.973
11293SOL    HW237674   2.818   8.098   7.863
11294SOL     OW37675   1.938   8.259   8.237
11294SOL    HW137676   2.037   8.247   8.246
11294SOL    HW237677   1.914   8.354   8.258
11295SOL     OW37678   1.992   9.269   9.019
11295SOL    HW137679   1.982   9.254   9.118
11295SOL    HW237680   1.906   9.305   8.983
11296SOL     OW37681   2.727   7.796   7.643
11296SOL    HW137682   2.786   7.859   7.594
11296SOL    HW237683   2.746   7.702   7.614
11297SOL     OW37684   3.581   8.033   9.279
11297SOL    HW137685   3.555   8.122   9.243
11297SOL    HW237686   3.579   7.965   9.206
11298SOL     OW37687   3.224   8.592   7.993
11298SOL    HW137688   3.307   8.563   7.945
11298SOL    HW237689   3.175   8.659   7.937
11299SOL     OW37690   2.412   7.644   8.333
11299SOL    HW137691   2.407   7.639   8.433
11299SOL    HW237692   2.414   7.740   8.304
11300SOL     OW37693   2.870   8.904   7.925
11300SOL    HW137694   2.824   8.976   7.873
11300SOL    HW237695   2.866   8.924   8.023
11301SOL     OW37696   3.657   8.514   8.321
11301SOL    HW137697   3.595   8.499   8.245
11301SOL    HW237698   3.605   8.525   8.406
11302SOL     OW37699   3.089   8.998   8.954
11302SOL    HW137700   3.095   8.921   9.018
11302SOL    HW237701   3.037   8.972   8.874
11303SOL     OW37702   2.183   8.391   7.690
11303SOL    HW137703   2.265   8.430   7.648
11303SOL    HW237704   2.156   8.309   7.641
11304SOL     OW37705   3.320   8.183   8.176
11304SOL    HW137706   3.315   8.118   8.251
11304SOL    HW237707   3.400   8.242   8.189
11305SOL     OW37708   2.323   8.714   9.175
11305SOL    HW137709   2.273   8.715   9.089
11305SOL    HW237710   2.260   8.696   9.251
11306SOL     OW37711   2.064   7.733   8.946
11306SOL    HW137712   1.984   7.793   8.933
11306SOL    HW237713   2.054   7.684   9.032
11307SOL     OW37714   3.494   8.825   7.529
11307SOL    HW137715   3.462   8.919   7.519
11307SOL    HW237716   3.418   8.762   7.517
11308SOL     OW37717   2.326   9.191   7.771
11308SOL    HW137718   2.359   9.230   7.857
11308SOL    HW237719   2.402   9.184   7.706
11309SOL     OW37720   3.262   7.555   7.874
11309SOL    HW137721   3.238   7.518   7.784
11309SOL    HW237722   3.361   7.571   7.878
11310SOL     OW37723   2.111   9.233   8.689
11310SOL    HW137724   2.168   9.168   8.739
11310SOL    HW237725   2.095   9.200   8.596
11311SOL     OW37726   2.802   9.146   8.352
11311SOL    HW137727   2.882   9.089   8.373
11311SOL    HW237728   2.753   9.106   8.275
11312SOL     OW37729   3.409   7.670   9.177
11312SOL    HW137730   3.404   7.707   9.269
11312SOL    HW237731   3.337   7.601   9.165
11313SOL     OW37732   2.476   7.570   7.565
11313SOL    HW137733   2.574   7.548   7.572
11313SOL    HW237734   2.445   7.553   7.472
11314SOL     OW37735   2.643   7.712   9.197
11314SOL    HW137736   2.710   7.651   9.240
11314SOL    HW237737   2.570   7.731   9.262
11315SOL     OW37738   3.213   8.038   8.881
11315SOL    HW137739   3.241   7.995   8.966
11315SOL    HW237740   3.238   8.134   8.882
11316SOL     OW37741   2.665   8.850   8.372
11316SOL    HW137742   2.755   8.864   8.330
11316SOL    HW237743   2.594   8.852   8.301
11317SOL     OW37744   2.784   7.951   8.347
11317SOL    HW137745   2.759   7.942   8.251
11317SOL    HW237746   2.832   7.869   8.378
11318SOL     OW37747   2.401   7.512   7.960
11318SOL    HW137748   2.320   7.513   8.018
11318SOL    HW237749   2.404   7.595   7.905
11319SOL     OW37750   2.159   7.483   7.619
11319SOL    HW137751   2.208   7.567   7.598
11319SOL    HW237752   2.221   7.418   7.664
11320SOL     OW37753   2.797   7.684   7.928
11320SOL    HW137754   2.749   7.725   7.850
11320SOL    HW237755   2.896   7.682   7.909
11321SOL     OW37756   2.938   8.131   8.912
11321SOL    HW137757   2.858   8.070   8.915
11321SOL    HW237758   3.019   8.078   8.888
11322SOL     OW37759   3.089   9.018   8.241
11322SOL    HW137760   3.110   9.092   8.176
11322SOL    HW237761   3.157   9.018   8.314
11323SOL     OW37762   2.321   8.600   8.189
11323SOL    HW137763   2.250   8.573   8.254
11323SOL    HW237764   2.295   8.572   8.096
11324SOL     OW37765   3.133   9.245   8.039
11324SOL    HW137766   3.177   9.309   7.975
11324SOL    HW237767   3.083   9.297   8.109
11325SOL     OW37768   2.894   7.997   7.464
11325SOL    HW137769   2.853   8.079   7.425
11325SOL    HW237770   2.958   8.023   7.537
11326SOL     OW37771   1.940   8.004   8.834
11326SOL    HW137772   2.032   8.003   8.793
11326SOL    HW237773   1.934   8.078   8.901
11327SOL     OW37774   2.423   7.670   8.595
11327SOL    HW137775   2.461   7.586   8.632
11327SOL    HW237776   2.335   7.689   8.639
11328SOL     OW37777   2.728   7.902   8.090
11328SOL    HW137778   2.696   7.974   8.028
11328SOL    HW237779   2.752   7.821   8.037
11329SOL     OW37780   2.879   7.487   8.201
11329SOL    HW137781   2.807   7.492   8.132
11329SOL    HW237782   2.855   7.418   8.270
11330SOL     OW37783   3.291   8.621   8.315
11330SOL    HW137784   3.236   8.537   8.308
11330SOL    HW237785   3.317   8.650   8.223
11331SOL     OW37786   3.328   8.038   8.440
11331SOL    HW137787   3.298   7.943   8.447
11331SOL    HW237788   3.401   8.054   8.506
11332SOL     OW37789   3.719   8.281   7.825
11332SOL    HW137790   3.761   8.217   7.889
11332SOL    HW237791   3.681   8.230   7.747
11333SOL     OW37792   2.350   8.833   7.622
11333SOL    HW137793   2.263   8.818   7.669
11333SOL    HW237794   2.333   8.859   7.527
11334SOL     OW37795   3.526   8.728   8.105
11334SOL    HW137796   3.625   8.736   8.119
11334SOL    HW237797   3.481   8.812   8.136
11335SOL     OW37798   3.616   8.671   9.036
11335SOL    HW137799   3.707   8.632   9.023
11335SOL    HW237800   3.624   8.767   9.060
11336SOL     OW37801   2.926   8.795   8.788
11336SOL    HW137802   2.846   8.772   8.843
11336SOL    HW237803   3.009   8.769   8.837
11337SOL     OW37804   2.973   8.643   8.548
11337SOL    HW137805   2.933   8.687   8.629
11337SOL    HW237806   2.932   8.680   8.465
11338SOL     OW37807   3.500   8.547   8.527
11338SOL    HW137808   3.505   8.628   8.586
11338SOL    HW237809   3.414   8.549   8.476
11339SOL     OW37810   2.777   7.537   8.850
11339SOL    HW137811   2.802   7.517   8.755
11339SOL    HW237812   2.849   7.593   8.892
11340SOL     OW37813   2.842   8.564   9.167
11340SOL    HW137814   2.743   8.570   9.177
11340SOL    HW237815   2.865   8.484   9.111
11341SOL     OW37816   2.272   8.261   8.699
11341SOL    HW137817   2.358   8.273   8.749
11341SOL    HW237818   2.230   8.174   8.726
11342SOL     OW37819   3.136   7.834   8.710
11342SOL    HW137820   3.157   7.908   8.774
11342SOL    HW237821   3.047   7.851   8.667
11343SOL     OW37822   1.926   9.012   8.779
11343SOL    HW137823   1.880   9.094   8.745
11343SOL    HW237824   2.024   9.031   8.788
11344SOL     OW37825   2.229   8.548   7.949
11344SOL    HW137826   2.222   8.631   7.893
11344SOL    HW237827   2.233   8.468   7.889
11345SOL     OW37828   2.428   7.985   8.313
11345SOL    HW137829   2.440   8.051   8.239
11345SOL    HW237830   2.474   8.019   8.396
11346SOL     OW37831   3.134   8.893   8.590
11346SOL    HW137832   3.181   8.906   8.677
11346SOL    HW237833   3.068   8.819   8.599
11347SOL     OW37834   3.444   8.087   7.920
11347SOL    HW137835   3.413   8.148   7.993
11347SOL    HW237836   3.494   8.139   7.851
11348SOL     OW37837   2.216   8.958   8.777
11348SOL    HW137838   2.195   8.914   8.690
11348SOL    HW237839   2.313   8.984   8.780
11349SOL     OW37840   2.264   8.199   9.046
11349SOL    HW137841   2.332   8.254   8.999
11349SOL    HW237842   2.304   8.111   9.073
11350SOL     OW37843   3.449   8.227   9.118
11350SOL    HW137844   3.357   8.265   9.113
11350SOL    HW237845   3.509   8.274   9.053
11351SOL     OW37846   2.875   7.553   9.218
11351SOL    HW137847   2.881   7.638   9.166
11351SOL    HW237848   2.907   7.477   9.161
11352SOL     OW37849   2.366   7.498   9.188
11352SOL    HW137850   2.324   7.441   9.118
11352SOL    HW237851   2.300   7.567   9.220
11353SOL     OW37852   2.435   8.318   8.477
11353SOL    HW137853   2.479   8.407   8.468
11353SOL    HW237854   2.372   8.318   8.554
11354SOL     OW37855   3.222   8.310   8.493
11354SOL    HW137856   3.147   8.310   8.427
11354SOL    HW237857   3.259   8.218   8.502
11355SOL     OW37858   2.169   7.661   8.679
11355SOL    HW137859   2.146   7.698   8.769
11355SOL    HW237860   2.139   7.566   8.673
11356SOL     OW37861   1.899   8.758   8.730
11356SOL    HW137862   1.952   8.709   8.798
11356SOL    HW237863   1.921   8.856   8.735
11357SOL     OW37864   2.594   8.082   8.512
11357SOL    HW137865   2.653   8.056   8.436
11357SOL    HW237866   2.566   8.178   8.501
11358SOL     OW37867   2.169   7.511   8.066
11358SOL    HW137868   2.158   7.605   8.099
11358SOL    HW237869   2.164   7.448   8.143
11359SOL     OW37870   3.484   7.815   7.822
11359SOL    HW137871   3.486   7.739   7.886
11359SOL    HW237872   3.436   7.892   7.862
11360SOL     OW37873   2.885   8.214   8.414
11360SOL    HW137874   2.900   8.235   8.510
11360SOL    HW237875   2.855   8.119   8.405
11361SOL     OW37876   2.842   9.021   9.148
11361SOL    HW137877   2.822   9.065   9.060
11361SOL    HW237878   2.881   8.930   9.132
11362SOL     OW37879   3.721   8.966   9.053
11362SOL    HW137880   3.735   8.993   8.958
11362SOL    HW237881   3.804   8.988   9.106
11363SOL     OW37882   2.212   8.346   9.252
11363SOL    HW137883   2.288   8.390   9.300
11363SOL    HW237884   2.247   8.299   9.170
11364SOL     OW37885   3.165   8.286   7.490
11364SOL    HW137886   3.199   8.193   7.505
11364SOL    HW237887   3.183   8.313   7.395
11365SOL     OW37888   2.930   8.781   8.297
11365SOL    HW137889   2.937   8.697   8.242
11365SOL    HW237890   2.992   8.850   8.261
11366SOL     OW37891   2.201   7.957   8.454
11366SOL    HW137892   2.149   7.874   8.437
11366SOL    HW237893   2.278   7.962   8.390
11367SOL     OW37894   3.000   7.828   9.126
11367SOL    HW137895   2.955   7.891   9.190
11367SOL    HW237896   3.093   7.859   9.109
11368SOL     OW37897   3.022   7.655   8.925
11368SOL    HW137898   3.022   7.719   9.002
11368SOL    HW237899   3.050   7.703   8.842
11369SOL     OW37900   1.870   8.774   7.648
11369SOL    HW137901   1.777   8.795   7.617
11369SOL    HW237902   1.880   8.675   7.661
11370SOL     OW37903   2.864   8.244   8.686
11370SOL    HW137904   2.905   8.212   8.772
11370SOL    HW237905   2.768   8.217   8.683
11371SOL     OW37906   2.051   7.968   9.170
11371SOL    HW137907   2.110   7.928   9.100
11371SOL    HW237908   1.993   8.039   9.129
11372SOL     OW37909   3.231   8.398   9.108
11372SOL    HW137910   3.270   8.487   9.128
11372SOL    HW237911   3.241   8.378   9.011
11373SOL     OW37912   3.519   8.052   8.654
11373SOL    HW137913   3.481   7.983   8.716
11373SOL    HW237914   3.601   8.016   8.610
11374SOL     OW37915   2.114   9.012   9.192
11374SOL    HW137916   2.084   9.069   9.268
11374SOL    HW237917   2.107   8.915   9.218
11375SOL     OW37918   2.533   7.912   8.717
11375SOL    HW137919   2.499   7.823   8.687
11375SOL    HW237920   2.559   7.966   8.637
11376SOL     OW37921   2.021   8.585   8.914
11376SOL    HW137922   2.043   8.524   8.990
11376SOL    HW237923   2.031   8.536   8.828
11377SOL     OW37924   3.209   8.507   8.682
11377SOL    HW137925   3.233   8.444   8.608
11377SOL    HW237926   3.119   8.547   8.664
11378SOL     OW37927   3.164   8.303   7.757
11378SOL    HW137928   3.078   8.272   7.799
11378SOL    HW237929   3.160   8.289   7.658
11379SOL     OW37930   3.114   9.179   8.576
11379SOL    HW137931   3.198   9.184   8.522
11379SOL    HW237932   3.091   9.083   8.594
11380SOL     OW37933   1.945   8.706   8.470
11380SOL    HW137934   1.940   8.705   8.570
11380SOL    HW237935   1.862   8.665   8.432
11381SOL     OW37936   2.550   9.110   9.164
11381SOL    HW137937   2.494   9.191   9.173
11381SOL    HW237938   2.602   9.114   9.078
11382SOL     OW37939   3.588   7.583   7.971
11382SOL    HW137940   3.661   7.566   7.904
11382SOL    HW237941   3.557   7.496   8.009
11383SOL     OW37942   3.250   9.021   7.925
11383SOL    HW137943   3.317   9.033   7.851
11383SOL    HW237944   3.210   9.110   7.948
11384SOL     OW37945   1.992   9.242   9.299
11384SOL    HW137946   1.951   9.168   9.352
11384SOL    HW237947   2.056   9.293   9.357
11385SOL     OW37948   3.142   8.375   8.120
11385SOL    HW137949   3.202   8.294   8.122
11385SOL    HW237950   3.182   8.444   8.060
11386SOL     OW37951   2.692   8.721   8.870
11386SOL    HW137952   2.687   8.754   8.965
11386SOL    HW237953   2.606   8.740   8.824
11387SOL     OW37954   2.534   9.064   7.602
11387SOL    HW137955   2.543   9.074   7.503
11387SOL    HW237956   2.494   8.975   7.623
11388SOL     OW37957   3.703   7.623   8.411
11388SOL    HW137958   3.742   7.538   8.375
11388SOL    HW237959   3.605   7.625   8.392
11389SOL     OW37960   2.125   7.774   8.168
11389SOL    HW137961   2.046   7.825   8.134
11389SOL    HW237962   2.116   7.759   8.266
11390SOL     OW37963   3.056   9.060   7.479
11390SOL    HW137964   3.062   8.967   7.516
11390SOL    HW237965   2.997   9.060   7.399
11391SOL     OW37966   2.684   8.450   8.820
11391SOL    HW137967   2.724   8.449   8.728
11391SOL    HW237968   2.694   8.542   8.860
11392SOL     OW37969   2.778   8.358   7.739
11392SOL    HW137970   2.841   8.396   7.671
11392SOL    HW237971   2.818   8.275   7.778
11393SOL     OW37972   3.366   9.055   7.492
11393SOL    HW137973   3.274   9.092   7.499
11393SOL    HW237974   3.404   9.075   7.402
11394SOL     OW37975   2.234   8.736   8.938
11394SOL    HW137976   2.221   8.829   8.904
11394SOL    HW237977   2.150   8.684   8.925
11395SOL     OW37978   3.476   8.740   8.737
11395SOL    HW137979   3.536   8.743   8.817
11395SOL    HW237980   3.401   8.804   8.750
11396SOL     OW37981   2.901   8.546   8.144
11396SOL    HW137982   2.831   8.499   8.198
11396SOL    HW237983   2.960   8.478   8.101
11397SOL     OW37984   2.876   7.684   8.419
11397SOL    HW137985   2.868   7.648   8.326
11397SOL    HW237986   2.874   7.608   8.484
11398SOL     OW37987   2.452   8.935   7.939
11398SOL    HW137988   2.494   8.877   7.869
11398SOL    HW237989   2.408   9.014   7.895
11399SOL     OW37990   3.571   7.833   8.829
11399SOL    HW137991   3.644   7.902   8.833
11399SOL    HW237992   3.599   7.758   8.770
11400SOL     OW37993   2.117   8.796   7.738
11400SOL    HW137994   2.021   8.797   7.711
11400SOL    HW237995   2.129   8.849   7.822
11401SOL     OW37996   1.967   8.461   9.174
11401SOL    HW137997   1.890   8.428   9.228
11401SOL    HW237998   2.052   8.431   9.216
11402SOL     OW37999   2.534   7.651   8.937
11402SOL    HW138000   2.624   7.635   8.897
11402SOL    HW238001   2.542   7.656   9.036
11403SOL     OW38002   1.937   7.793   7.481
11403SOL    HW138003   1.845   7.765   7.452
11403SOL    HW238004   1.968   7.870   7.425
11404SOL     OW38005   3.302   8.304   8.846
11404SOL    HW138006   3.245   8.356   8.783
11404SOL    HW238007   3.398   8.316   8.822
11405SOL     OW38008   1.934   7.614   7.766
11405SOL    HW138009   1.917   7.697   7.712
11405SOL    HW238010   2.024   7.577   7.744
11406SOL     OW38011   2.475   8.290   8.879
11406SOL    HW138012   2.531   8.371   8.862
11406SOL    HW238013   2.534   8.210   8.882
11407SOL     OW38014   3.355   9.215   8.407
11407SOL    HW138015   3.388   9.279   8.338
11407SOL    HW238016   3.421   9.209   8.482
11408SOL     OW38017   2.578   8.013   9.156
11408SOL    HW138018   2.597   8.078   9.230
11408SOL    HW238019   2.638   7.933   9.165
11409SOL     OW38020   3.312   8.668   9.081
11409SOL    HW138021   3.303   8.658   9.180
11409SOL    HW238022   3.408   8.661   9.055
11410SOL     OW38023   2.252   9.189   9.008
11410SOL    HW138024   2.161   9.230   9.006
11410SOL    HW238025   2.245   9.095   9.040
11411SOL     OW38026   3.536   8.331   8.702
11411SOL    HW138027   3.509   8.242   8.665
11411SOL    HW238028   3.537   8.399   8.629
11412SOL     OW38029   3.087   7.773   7.897
11412SOL    HW138030   3.152   7.699   7.886
11412SOL    HW238031   3.107   7.823   7.981
11413SOL     OW38032   3.639   7.790   9.090
11413SOL    HW138033   3.622   7.821   8.996
11413SOL    HW238034   3.555   7.753   9.128
11414SOL     OW38035   3.592   8.382   8.965
11414SOL    HW138036   3.630   8.473   8.980
11414SOL    HW238037   3.584   8.365   8.866
11415SOL     OW38038   2.721   8.822   7.464
11415SOL    HW138039   2.675   8.837   7.552
11415SOL    HW238040   2.765   8.907   7.434
11416SOL     OW38041   2.721   8.404   8.309
11416SOL    HW138042   2.775   8.335   8.357
11416SOL    HW238043   2.689   8.473   8.375
11417SOL     OW38044   2.945   8.432   7.535
11417SOL    HW138045   2.922   8.485   7.453
11417SOL    HW238046   3.026   8.376   7.516
11418SOL     OW38047   3.723   9.017   8.299
11418SOL    HW138048   3.652   9.005   8.229
11418SOL    HW238049   3.724   8.938   8.359
11419SOL     OW38050   2.083   8.762   9.292
11419SOL    HW138051   2.018   8.689   9.271
11419SOL    HW238052   2.087   8.776   9.390
11420SOL     OW38053   1.941   8.688   8.101
11420SOL    HW138054   1.940   8.641   8.189
11420SOL    HW238055   2.023   8.660   8.050
11421SOL     OW38056   2.534   8.839   9.072
11421SOL    HW138057   2.456   8.789   9.110
11421SOL    HW238058   2.531   8.934   9.103
11422SOL     OW38059   3.686   7.640   8.675
11422SOL    HW138060   3.682   7.550   8.719
11422SOL    HW238061   3.689   7.629   8.576
11423SOL     OW38062   3.567   8.935   8.552
11423SOL    HW138063   3.474   8.910   8.525
11423SOL    HW238064   3.593   8.885   8.634
11424SOL     OW38065   2.179   7.995   8.728
11424SOL    HW138066   2.217   7.936   8.800
11424SOL    HW238067   2.219   7.969   8.640
11425SOL     OW38068   2.674   9.034   8.135
11425SOL    HW138069   2.706   9.044   8.041
11425SOL    HW238070   2.595   8.972   8.137
11426SOL     OW38071   3.286   7.662   8.560
11426SOL    HW138072   3.338   7.597   8.615
11426SOL    HW238073   3.237   7.725   8.621
11427SOL     OW38074   2.863   7.482   8.602
11427SOL    HW138075   2.800   7.410   8.571
11427SOL    HW238076   2.956   7.446   8.602
11428SOL     OW38077   2.632   8.778   7.749
11428SOL    HW138078   2.586   8.691   7.766
11428SOL    HW238079   2.723   8.775   7.790
11429SOL     OW38080   3.214   7.500   7.616
11429SOL    HW138081   3.249   7.459   7.532
11429SOL    HW238082   3.124   7.462   7.636
11430SOL     OW38083   3.162   7.901   8.139
11430SOL    HW138084   3.103   7.981   8.143
11430SOL    HW238085   3.177   7.866   8.232
11431SOL     OW38086   3.455   7.669   8.330
11431SOL    HW138087   3.371   7.668   8.384
11431SOL    HW238088   3.457   7.752   8.274
11432SOL     OW38089   1.901   8.525   7.748
11432SOL    HW138090   2.000   8.514   7.739
11432SOL    HW238091   1.861   8.439   7.780
11433SOL     OW38092   2.737   9.094   7.785
11433SOL    HW138093   2.660   9.059   7.731
11433SOL    HW238094   2.705   9.165   7.847
11434SOL     OW38095   2.092   8.076   9.423
11434SOL    HW138096   1.999   8.074   9.460
11434SOL    HW238097   2.093   8.037   9.331
11435SOL     OW38098   3.617   8.055   9.541
11435SOL    HW138099   3.605   8.042   9.442
11435SOL    HW238100   3.587   7.974   9.590
11436SOL     OW38101   2.093   9.161   9.793
11436SOL    HW138102   2.127   9.238   9.847
11436SOL    HW238103   2.137   9.161   9.703
11437SOL     OW38104   2.092   8.882   9.848
11437SOL    HW138105   2.066   8.978   9.848
11437SOL    HW238106   2.021   8.828   9.893
11438SOL     OW38107   2.468   8.412   9.433
11438SOL    HW138108   2.475   8.496   9.379
11438SOL    HW238109   2.514   8.425   9.521
11439SOL     OW38110   1.984   8.091   9.873
11439SOL    HW138111   1.939   8.003   9.890
11439SOL    HW238112   1.983   8.145   9.957
11440SOL     OW38113   3.704   9.215   9.669
11440SOL    HW138114   3.758   9.186   9.749
11440SOL    HW238115   3.734   9.305   9.640
11441SOL     OW38116   1.889   9.044   9.427
11441SOL    HW138117   1.870   8.948   9.448
11441SOL    HW238118   1.856   9.102   9.502
11442SOL     OW38119   3.551   8.370   9.922
11442SOL    HW138120   3.646   8.341   9.930
11442SOL    HW238121   3.543   8.435   9.847
11443SOL     OW38122   3.503   8.556   9.742
11443SOL    HW138123   3.589   8.558   9.690
11443SOL    HW238124   3.517   8.603   9.830
11444SOL     OW38125   2.475   8.813  10.036
11444SOL    HW138126   2.426   8.726  10.045
11444SOL    HW238127   2.452   8.856   9.949
11445SOL     OW38128   2.671   7.452   9.812
11445SOL    HW138129   2.711   7.543   9.803
11445SOL    HW238130   2.571   7.460   9.818
11446SOL     OW38131   3.387   8.447   9.500
11446SOL    HW138132   3.324   8.371   9.513
11446SOL    HW238133   3.435   8.465   9.586
11447SOL     OW38134   2.460   8.177   9.580
11447SOL    HW138135   2.484   8.246   9.512
11447SOL    HW238136   2.382   8.210   9.634
11448SOL     OW38137   3.438   9.110   9.617
11448SOL    HW138138   3.527   9.156   9.620
11448SOL    HW238139   3.417   9.086   9.522
11449SOL     OW38140   2.903   8.149   9.739
11449SOL    HW138141   2.929   8.145   9.835
11449SOL    HW238142   2.818   8.098   9.725
11450SOL     OW38143   1.938   8.259  10.099
11450SOL    HW138144   2.037   8.247  10.108
11450SOL    HW238145   1.914   8.354  10.120
11451SOL     OW38146   2.727   7.796   9.505
11451SOL    HW138147   2.786   7.859   9.456
11451SOL    HW238148   2.746   7.702   9.476
11452SOL     OW38149   3.224   8.592   9.855
11452SOL    HW138150   3.307   8.563   9.807
11452SOL    HW238151   3.175   8.659   9.799
11453SOL     OW38152   2.870   8.904   9.787
11453SOL    HW138153   2.824   8.976   9.735
11453SOL    HW238154   2.866   8.924   9.885
11454SOL     OW38155   2.213   9.249  10.163
11454SOL    HW138156   2.263   9.163  10.169
11454SOL    HW238157   2.278   9.326  10.160
11455SOL     OW38158   2.183   8.391   9.552
11455SOL    HW138159   2.265   8.430   9.510
11455SOL    HW238160   2.156   8.309   9.503
11456SOL     OW38161   2.973   9.224   9.547
11456SOL    HW138162   2.913   9.162   9.597
11456SOL    HW238163   3.004   9.180   9.462
11457SOL     OW38164   3.494   8.825   9.391
11457SOL    HW138165   3.462   8.919   9.381
11457SOL    HW238166   3.418   8.762   9.379
11458SOL     OW38167   2.326   9.191   9.633
11458SOL    HW138168   2.359   9.230   9.719
11458SOL    HW238169   2.402   9.184   9.568
11459SOL     OW38170   3.262   7.555   9.736
11459SOL    HW138171   3.238   7.518   9.646
11459SOL    HW238172   3.361   7.571   9.740
11460SOL     OW38173   2.244   8.148   9.790
11460SOL    HW138174   2.289   8.058   9.787
11460SOL    HW238175   2.150   8.137   9.823
11461SOL     OW38176   2.476   7.570   9.427
11461SOL    HW138177   2.574   7.548   9.434
11461SOL    HW238178   2.445   7.553   9.334
11462SOL     OW38179   2.401   7.512   9.822
11462SOL    HW138180   2.320   7.513   9.880
11462SOL    HW238181   2.404   7.595   9.767
11463SOL     OW38182   3.296   8.636   9.351
11463SOL    HW138183   3.328   8.560   9.408
11463SOL    HW238184   3.204   8.663   9.381
11464SOL     OW38185   2.159   7.483   9.481
11464SOL    HW138186   2.208   7.567   9.460
11464SOL    HW238187   2.221   7.418   9.526
11465SOL     OW38188   2.797   7.684   9.790
11465SOL    HW138189   2.749   7.725   9.712
11465SOL    HW238190   2.896   7.682   9.771
11466SOL     OW38191   2.321   8.600  10.051
11466SOL    HW138192   2.250   8.573  10.116
11466SOL    HW238193   2.295   8.572   9.958
11467SOL     OW38194   3.133   9.245   9.901
11467SOL    HW138195   3.177   9.309   9.837
11467SOL    HW238196   3.083   9.297   9.971
11468SOL     OW38197   2.894   7.997   9.326
11468SOL    HW138198   2.853   8.079   9.287
11468SOL    HW238199   2.958   8.023   9.399
11469SOL     OW38200   2.728   7.902   9.952
11469SOL    HW138201   2.696   7.974   9.890
11469SOL    HW238202   2.752   7.821   9.899
11470SOL     OW38203   2.350   8.833   9.484
11470SOL    HW138204   2.263   8.818   9.531
11470SOL    HW238205   2.333   8.859   9.389
11471SOL     OW38206   3.252   8.023   9.388
11471SOL    HW138207   3.198   8.002   9.469
11471SOL    HW238208   3.343   7.982   9.397
11472SOL     OW38209   2.389   7.704   9.638
11472SOL    HW138210   2.416   7.645   9.563
11472SOL    HW238211   2.389   7.799   9.607
11473SOL     OW38212   2.567   8.498   9.678
11473SOL    HW138213   2.553   8.505   9.777
11473SOL    HW238214   2.651   8.447   9.660
11474SOL     OW38215   2.229   8.548   9.811
11474SOL    HW138216   2.222   8.631   9.755
11474SOL    HW238217   2.233   8.468   9.751
11475SOL     OW38218   3.114   8.796   9.698
11475SOL    HW138219   3.164   8.873   9.738
11475SOL    HW238220   3.019   8.798   9.730
11476SOL     OW38221   3.444   8.087   9.782
11476SOL    HW138222   3.413   8.148   9.855
11476SOL    HW238223   3.494   8.139   9.713
11477SOL     OW38224   3.071   7.973   9.585
11477SOL    HW138225   3.084   7.889   9.639
11477SOL    HW238226   3.042   8.047   9.645
11478SOL     OW38227   2.169   7.511   9.928
11478SOL    HW138228   2.158   7.605   9.961
11478SOL    HW238229   2.164   7.448  10.005
11479SOL     OW38230   3.484   7.815   9.684
11479SOL    HW138231   3.486   7.739   9.748
11479SOL    HW238232   3.436   7.892   9.724
11480SOL     OW38233   3.402   7.722   9.435
11480SOL    HW138234   3.341   7.647   9.458
11480SOL    HW238235   3.424   7.774   9.518
11481SOL     OW38236   3.165   8.286   9.352
11481SOL    HW138237   3.199   8.193   9.367
11481SOL    HW238238   3.183   8.313   9.257
11482SOL     OW38239   1.870   8.774   9.510
11482SOL    HW138240   1.777   8.795   9.479
11482SOL    HW238241   1.880   8.675   9.523
11483SOL     OW38242   2.677   8.020   9.635
11483SOL    HW138243   2.684   7.931   9.589
11483SOL    HW238244   2.583   8.054   9.627
11484SOL     OW38245   2.335   7.948   9.501
11484SOL    HW138246   2.396   8.028   9.505
11484SOL    HW238247   2.240   7.979   9.508
11485SOL     OW38248   3.164   8.303   9.619
11485SOL    HW138249   3.078   8.272   9.661
11485SOL    HW238250   3.160   8.289   9.520
11486SOL     OW38251   3.588   7.583   9.833
11486SOL    HW138252   3.661   7.566   9.766
11486SOL    HW238253   3.557   7.496   9.871
11487SOL     OW38254   3.250   9.021   9.787
11487SOL    HW138255   3.317   9.033   9.713
11487SOL    HW238256   3.210   9.110   9.810
11488SOL     OW38257   2.534   9.064   9.464
11488SOL    HW138258   2.543   9.074   9.365
11488SOL    HW238259   2.494   8.975   9.485
11489SOL     OW38260   3.056   9.060   9.341
11489SOL    HW138261   3.062   8.967   9.378
11489SOL    HW238262   2.997   9.060   9.261
11490SOL     OW38263   2.778   8.358   9.601
11490SOL    HW138264   2.841   8.396   9.533
11490SOL    HW238265   2.818   8.275   9.640
11491SOL     OW38266   3.366   9.055   9.354
11491SOL    HW138267   3.274   9.092   9.361
11491SOL    HW238268   3.404   9.075   9.264
11492SOL     OW38269   2.452   8.935   9.801
11492SOL    HW138270   2.494   8.877   9.731
11492SOL    HW238271   2.408   9.014   9.757
11493SOL     OW38272   2.117   8.796   9.600
11493SOL    HW138273   2.021   8.797   9.573
11493SOL    HW238274   2.129   8.849   9.684
11494SOL     OW38275   1.937   7.793   9.343
11494SOL    HW138276   1.845   7.765   9.314
11494SOL    HW238277   1.968   7.870   9.287
11495SOL     OW38278   1.934   7.614   9.628
11495SOL    HW138279   1.917   7.697   9.574
11495SOL    HW238280   2.024   7.577   9.606
11496SOL     OW38281   3.045   8.783   9.429
11496SOL    HW138282   2.946   8.772   9.431
11496SOL    HW238283   3.079   8.798   9.522
11497SOL     OW38284   3.087   7.773   9.759
11497SOL    HW138285   3.152   7.699   9.748
11497SOL    HW238286   3.107   7.823   9.843
11498SOL     OW38287   2.456   8.193   9.962
11498SOL    HW138288   2.506   8.278   9.943
11498SOL    HW238289   2.368   8.195   9.914
11499SOL     OW38290   2.721   8.822   9.326
11499SOL    HW138291   2.675   8.837   9.414
11499SOL    HW238292   2.765   8.907   9.296
11500SOL     OW38293   2.945   8.432   9.397
11500SOL    HW138294   2.922   8.485   9.315
11500SOL    HW238295   3.026   8.376   9.378
11501SOL     OW38296   1.941   8.688   9.963
11501SOL    HW138297   1.940   8.641  10.051
11501SOL    HW238298   2.023   8.660   9.912
11502SOL     OW38299   2.290   7.872   9.830
11502SOL    HW138300   2.320   7.800   9.768
11502SOL    HW238301   2.251   7.832   9.913
11503SOL     OW38302   2.632   8.778   9.611
11503SOL    HW138303   2.586   8.691   9.628
11503SOL    HW238304   2.723   8.775   9.652
11504SOL     OW38305   3.214   7.500   9.478
11504SOL    HW138306   3.249   7.459   9.394
11504SOL    HW238307   3.124   7.462   9.498
11505SOL     OW38308   1.901   8.525   9.610
11505SOL    HW138309   2.000   8.514   9.601
11505SOL    HW238310   1.861   8.439   9.642
11506SOL     OW38311   2.737   9.094   9.647
11506SOL    HW138312   2.660   9.059   9.593
11506SOL    HW238313   2.705   9.165   9.709
11507SOL     OW38314   2.087   9.585   0.996
11507SOL    HW138315   2.122   9.568   1.088
11507SOL    HW238316   1.999   9.540   0.984
11508SOL     OW38317   1.881   9.678   0.647
11508SOL    HW138318   1.799   9.721   0.686
11508SOL    HW238319   1.853   9.605   0.584
11509SOL     OW38320   3.617   9.917   0.231
11509SOL    HW138321   3.605   9.904   0.132
11509SOL    HW238322   3.587   9.836   0.280
11510SOL     OW38323   2.300   9.702   1.499
11510SOL    HW138324   2.382   9.646   1.508
11510SOL    HW238325   2.219   9.644   1.503
11511SOL     OW38326   3.465   9.757   0.737
11511SOL    HW138327   3.391   9.803   0.687
11511SOL    HW238328   3.516   9.825   0.790
11512SOL     OW38329   3.456   9.424   1.480
11512SOL    HW138330   3.438   9.491   1.408
11512SOL    HW238331   3.453   9.470   1.569
11513SOL     OW38332   1.984   9.953   0.563
11513SOL    HW138333   1.939   9.865   0.580
11513SOL    HW238334   1.983  10.007   0.647
11514SOL     OW38335   2.671   9.314   0.502
11514SOL    HW138336   2.711   9.405   0.493
11514SOL    HW238337   2.571   9.322   0.508
11515SOL     OW38338   2.179   9.561   1.801
11515SOL    HW138339   2.250   9.632   1.807
11515SOL    HW238340   2.091   9.600   1.829
11516SOL     OW38341   3.143   9.655   0.944
11516SOL    HW138342   3.057   9.605   0.931
11516SOL    HW238343   3.205   9.601   1.000
11517SOL     OW38344   2.669   9.915   1.465
11517SOL    HW138345   2.622   9.912   1.554
11517SOL    HW238346   2.618   9.860   1.399
11518SOL     OW38347   3.256   9.779   1.674
11518SOL    HW138348   3.236   9.822   1.762
11518SOL    HW238349   3.334   9.717   1.683
11519SOL     OW38350   2.853   9.720   1.242
11519SOL    HW138351   2.776   9.754   1.296
11519SOL    HW238352   2.819   9.669   1.163
11520SOL     OW38353   2.903  10.011   0.429
11520SOL    HW138354   2.929  10.007   0.525
11520SOL    HW238355   2.818   9.960   0.415
11521SOL     OW38356   2.727   9.658   0.195
11521SOL    HW138357   2.786   9.721   0.146
11521SOL    HW238358   2.746   9.564   0.166
11522SOL     OW38359   3.581   9.895   1.831
11522SOL    HW138360   3.555   9.984   1.795
11522SOL    HW238361   3.579   9.827   1.758
11523SOL     OW38362   2.412   9.506   0.885
11523SOL    HW138363   2.407   9.501   0.985
11523SOL    HW238364   2.414   9.602   0.856
11524SOL     OW38365   3.320  10.045   0.728
11524SOL    HW138366   3.315   9.980   0.803
11524SOL    HW238367   3.400  10.104   0.741
11525SOL     OW38368   2.064   9.595   1.498
11525SOL    HW138369   1.984   9.655   1.485
11525SOL    HW238370   2.054   9.546   1.584
11526SOL     OW38371   3.262   9.417   0.426
11526SOL    HW138372   3.238   9.380   0.336
11526SOL    HW238373   3.361   9.433   0.430
11527SOL     OW38374   3.409   9.532   1.729
11527SOL    HW138375   3.404   9.569   1.821
11527SOL    HW238376   3.337   9.463   1.717
11528SOL     OW38377   3.213   9.900   1.433
11528SOL    HW138378   3.241   9.857   1.518
11528SOL    HW238379   3.238   9.996   1.434
11529SOL     OW38380   2.784   9.813   0.899
11529SOL    HW138381   2.759   9.804   0.803
11529SOL    HW238382   2.832   9.731   0.930
11530SOL     OW38383   2.401   9.374   0.512
11530SOL    HW138384   2.320   9.375   0.570
11530SOL    HW238385   2.404   9.457   0.457
11531SOL     OW38386   2.938   9.993   1.464
11531SOL    HW138387   2.858   9.932   1.467
11531SOL    HW238388   3.019   9.940   1.440
11532SOL     OW38389   2.894   9.859   0.016
11532SOL    HW138390   2.853   9.941  -0.023
11532SOL    HW238391   2.958   9.885   0.089
11533SOL     OW38392   1.940   9.866   1.386
11533SOL    HW138393   2.032   9.865   1.345
11533SOL    HW238394   1.934   9.940   1.453
11534SOL     OW38395   2.423   9.532   1.147
11534SOL    HW138396   2.461   9.448   1.184
11534SOL    HW238397   2.335   9.551   1.191
11535SOL     OW38398   2.728   9.764   0.642
11535SOL    HW138399   2.696   9.836   0.580
11535SOL    HW238400   2.752   9.683   0.589
11536SOL     OW38401   2.879   9.349   0.753
11536SOL    HW138402   2.807   9.354   0.684
11536SOL    HW238403   2.855   9.280   0.822
11537SOL     OW38404   3.328   9.900   0.992
11537SOL    HW138405   3.298   9.805   0.999
11537SOL    HW238406   3.401   9.916   1.058
11538SOL     OW38407   3.136   9.696   1.262
11538SOL    HW138408   3.157   9.770   1.326
11538SOL    HW238409   3.047   9.713   1.219
11539SOL     OW38410   2.428   9.847   0.865
11539SOL    HW138411   2.440   9.913   0.791
11539SOL    HW238412   2.474   9.881   0.948
11540SOL     OW38413   3.444   9.949   0.472
11540SOL    HW138414   3.413  10.010   0.545
11540SOL    HW238415   3.494  10.001   0.403
11541SOL     OW38416   2.875   9.415   1.770
11541SOL    HW138417   2.881   9.500   1.718
11541SOL    HW238418   2.907   9.339   1.713
11542SOL     OW38419   3.071   9.835   0.275
11542SOL    HW138420   3.084   9.751   0.329
11542SOL    HW238421   3.042   9.909   0.335
11543SOL     OW38422   2.169   9.523   1.231
11543SOL    HW138423   2.146   9.560   1.321
11543SOL    HW238424   2.139   9.428   1.225
11544SOL     OW38425   2.594   9.944   1.064
11544SOL    HW138426   2.653   9.918   0.988
11544SOL    HW238427   2.566  10.040   1.053
11545SOL     OW38428   2.169   9.373   0.618
11545SOL    HW138429   2.158   9.467   0.651
11545SOL    HW238430   2.164   9.310   0.695
11546SOL     OW38431   3.484   9.677   0.374
11546SOL    HW138432   3.486   9.601   0.438
11546SOL    HW238433   3.436   9.754   0.414
11547SOL     OW38434   3.402   9.584   0.125
11547SOL    HW138435   3.341   9.509   0.148
11547SOL    HW238436   3.424   9.636   0.208
11548SOL     OW38437   2.181  10.120   0.949
11548SOL    HW138438   2.274  10.156   0.954
11548SOL    HW238439   2.175  10.035   1.001
11549SOL     OW38440   2.201   9.819   1.006
11549SOL    HW138441   2.149   9.736   0.989
11549SOL    HW238442   2.278   9.824   0.942
11550SOL     OW38443   3.000   9.690   1.678
11550SOL    HW138444   2.955   9.753   1.742
11550SOL    HW238445   3.093   9.721   1.661
11551SOL     OW38446   3.022   9.517   1.477
11551SOL    HW138447   3.022   9.581   1.554
11551SOL    HW238448   3.050   9.565   1.394
11552SOL     OW38449   1.902   9.854   1.114
11552SOL    HW138450   1.987   9.821   1.073
11552SOL    HW238451   1.915   9.869   1.212
11553SOL     OW38452   2.051   9.830   1.722
11553SOL    HW138453   2.110   9.790   1.652
11553SOL    HW238454   1.993   9.901   1.681
11554SOL     OW38455   2.677   9.882   0.325
11554SOL    HW138456   2.684   9.793   0.279
11554SOL    HW238457   2.583   9.916   0.317
11555SOL     OW38458   2.533   9.774   1.269
11555SOL    HW138459   2.499   9.685   1.239
11555SOL    HW238460   2.559   9.828   1.189
11556SOL     OW38461   3.588   9.445   0.523
11556SOL    HW138462   3.661   9.428   0.456
11556SOL    HW238463   3.557   9.358   0.561
11557SOL     OW38464   3.703   9.485   0.963
11557SOL    HW138465   3.742   9.400   0.927
11557SOL    HW238466   3.605   9.487   0.944
11558SOL     OW38467   2.125   9.636   0.720
11558SOL    HW138468   2.046   9.687   0.686
11558SOL    HW238469   2.116   9.621   0.818
11559SOL     OW38470   2.876   9.546   0.971
11559SOL    HW138471   2.868   9.510   0.878
11559SOL    HW238472   2.874   9.470   1.036
11560SOL     OW38473   1.937   9.655   0.033
11560SOL    HW138474   1.845   9.627   0.004
11560SOL    HW238475   1.968   9.732  -0.023
11561SOL     OW38476   1.934   9.476   0.318
11561SOL    HW138477   1.917   9.559   0.264
11561SOL    HW238478   2.024   9.439   0.296
11562SOL     OW38479   2.578   9.875   1.708
11562SOL    HW138480   2.597   9.940   1.782
11562SOL    HW238481   2.638   9.795   1.717
11563SOL     OW38482   3.087   9.635   0.449
11563SOL    HW138483   3.152   9.561   0.438
11563SOL    HW238484   3.107   9.685   0.533
11564SOL     OW38485   2.945  10.294   0.087
11564SOL    HW138486   2.922  10.347   0.005
11564SOL    HW238487   3.026  10.238   0.068
11565SOL     OW38488   3.686   9.502   1.227
11565SOL    HW138489   3.682   9.412   1.271
11565SOL    HW238490   3.689   9.491   1.128
11566SOL     OW38491   2.179   9.857   1.280
11566SOL    HW138492   2.217   9.798   1.352
11566SOL    HW238493   2.219   9.831   1.192
11567SOL     OW38494   3.286   9.524   1.112
11567SOL    HW138495   3.338   9.459   1.167
11567SOL    HW238496   3.237   9.587   1.173
11568SOL     OW38497   2.863   9.344   1.154
11568SOL    HW138498   2.800   9.272   1.123
11568SOL    HW238499   2.956   9.308   1.154
11569SOL     OW38500   3.214   9.362   0.168
11569SOL    HW138501   3.249   9.321   0.084
11569SOL    HW238502   3.124   9.324   0.188
11570SOL     OW38503   3.162   9.763   0.691
11570SOL    HW138504   3.103   9.843   0.695
11570SOL    HW238505   3.177   9.728   0.784
11571SOL     OW38506   3.455   9.531   0.882
11571SOL    HW138507   3.371   9.530   0.936
11571SOL    HW238508   3.457   9.614   0.826
11572SOL     OW38509   2.087   9.585   2.858
11572SOL    HW138510   2.122   9.568   2.950
11572SOL    HW238511   1.999   9.540   2.846
11573SOL     OW38512   1.881   9.678   2.509
11573SOL    HW138513   1.799   9.721   2.548
11573SOL    HW238514   1.853   9.605   2.446
11574SOL     OW38515   3.617   9.917   2.093
11574SOL    HW138516   3.605   9.904   1.994
11574SOL    HW238517   3.587   9.836   2.142
11575SOL     OW38518   3.465   9.757   2.599
11575SOL    HW138519   3.391   9.803   2.549
11575SOL    HW238520   3.516   9.825   2.652
11576SOL     OW38521   3.456   9.424   3.342
11576SOL    HW138522   3.438   9.491   3.270
11576SOL    HW238523   3.453   9.470   3.431
11577SOL     OW38524   1.984   9.953   2.425
11577SOL    HW138525   1.939   9.865   2.442
11577SOL    HW238526   1.983  10.007   2.509
11578SOL     OW38527   2.671   9.314   2.364
11578SOL    HW138528   2.711   9.405   2.355
11578SOL    HW238529   2.571   9.322   2.370
11579SOL     OW38530   3.143   9.655   2.806
11579SOL    HW138531   3.057   9.605   2.793
11579SOL    HW238532   3.205   9.601   2.862
11580SOL     OW38533   2.669   9.915   3.327
11580SOL    HW138534   2.622   9.912   3.416
11580SOL    HW238535   2.618   9.860   3.261
11581SOL     OW38536   3.256   9.779   3.536
11581SOL    HW138537   3.236   9.822   3.624
11581SOL    HW238538   3.334   9.717   3.545
11582SOL     OW38539   2.853   9.720   3.104
11582SOL    HW138540   2.776   9.754   3.158
11582SOL    HW238541   2.819   9.669   3.025
11583SOL     OW38542   2.903  10.011   2.291
11583SOL    HW138543   2.929  10.007   2.387
11583SOL    HW238544   2.818   9.960   2.277
11584SOL     OW38545   2.727   9.658   2.057
11584SOL    HW138546   2.786   9.721   2.008
11584SOL    HW238547   2.746   9.564   2.028
11585SOL     OW38548   3.581   9.895   3.693
11585SOL    HW138549   3.555   9.984   3.657
11585SOL    HW238550   3.579   9.827   3.620
11586SOL     OW38551   2.412   9.506   2.747
11586SOL    HW138552   2.407   9.501   2.847
11586SOL    HW238553   2.414   9.602   2.718
11587SOL     OW38554   3.320  10.045   2.590
11587SOL    HW138555   3.315   9.980   2.665
11587SOL    HW238556   3.400  10.104   2.603
11588SOL     OW38557   2.064   9.595   3.360
11588SOL    HW138558   1.984   9.655   3.347
11588SOL    HW238559   2.054   9.546   3.446
11589SOL     OW38560   3.262   9.417   2.288
11589SOL    HW138561   3.238   9.380   2.198
11589SOL    HW238562   3.361   9.433   2.292
11590SOL     OW38563   3.409   9.532   3.591
11590SOL    HW138564   3.404   9.569   3.683
11590SOL    HW238565   3.337   9.463   3.579
11591SOL     OW38566   2.643   9.574   3.611
11591SOL    HW138567   2.710   9.513   3.654
11591SOL    HW238568   2.570   9.593   3.676
11592SOL     OW38569   3.213   9.900   3.295
11592SOL    HW138570   3.241   9.857   3.380
11592SOL    HW238571   3.238   9.996   3.296
11593SOL     OW38572   2.784   9.813   2.761
11593SOL    HW138573   2.759   9.804   2.665
11593SOL    HW238574   2.832   9.731   2.792
11594SOL     OW38575   2.401   9.374   2.374
11594SOL    HW138576   2.320   9.375   2.432
11594SOL    HW238577   2.404   9.457   2.319
11595SOL     OW38578   2.159   9.345   2.033
11595SOL    HW138579   2.208   9.429   2.012
11595SOL    HW238580   2.221   9.280   2.078
11596SOL     OW38581   2.797   9.546   2.342
11596SOL    HW138582   2.749   9.587   2.264
11596SOL    HW238583   2.896   9.544   2.323
11597SOL     OW38584   2.938   9.993   3.326
11597SOL    HW138585   2.858   9.932   3.329
11597SOL    HW238586   3.019   9.940   3.302
11598SOL     OW38587   2.894   9.859   1.878
11598SOL    HW138588   2.853   9.941   1.839
11598SOL    HW238589   2.958   9.885   1.951
11599SOL     OW38590   1.940   9.866   3.248
11599SOL    HW138591   2.032   9.865   3.207
11599SOL    HW238592   1.934   9.940   3.315
11600SOL     OW38593   2.423   9.532   3.009
11600SOL    HW138594   2.461   9.448   3.046
11600SOL    HW238595   2.335   9.551   3.053
11601SOL     OW38596   2.728   9.764   2.504
11601SOL    HW138597   2.696   9.836   2.442
11601SOL    HW238598   2.752   9.683   2.451
11602SOL     OW38599   2.879   9.349   2.615
11602SOL    HW138600   2.807   9.354   2.546
11602SOL    HW238601   2.855   9.280   2.684
11603SOL     OW38602   3.328   9.900   2.854
11603SOL    HW138603   3.298   9.805   2.861
11603SOL    HW238604   3.401   9.916   2.920
11604SOL     OW38605   2.389   9.566   2.190
11604SOL    HW138606   2.416   9.507   2.115
11604SOL    HW238607   2.389   9.661   2.159
11605SOL     OW38608   2.777   9.399   3.264
11605SOL    HW138609   2.802   9.379   3.169
11605SOL    HW238610   2.849   9.455   3.306
11606SOL     OW38611   3.136   9.696   3.124
11606SOL    HW138612   3.157   9.770   3.188
11606SOL    HW238613   3.047   9.713   3.081
11607SOL     OW38614   2.428   9.847   2.727
11607SOL    HW138615   2.440   9.913   2.653
11607SOL    HW238616   2.474   9.881   2.810
11608SOL     OW38617   3.444   9.949   2.334
11608SOL    HW138618   3.413  10.010   2.407
11608SOL    HW238619   3.494  10.001   2.265
11609SOL     OW38620   2.875   9.415   3.632
11609SOL    HW138621   2.881   9.500   3.580
11609SOL    HW238622   2.907   9.339   3.575
11610SOL     OW38623   3.071   9.835   2.137
11610SOL    HW138624   3.084   9.751   2.191
11610SOL    HW238625   3.042   9.909   2.197
11611SOL     OW38626   2.169   9.523   3.093
11611SOL    HW138627   2.146   9.560   3.183
11611SOL    HW238628   2.139   9.428   3.087
11612SOL     OW38629   2.594   9.944   2.926
11612SOL    HW138630   2.653   9.918   2.850
11612SOL    HW238631   2.566  10.040   2.915
11613SOL     OW38632   2.169   9.373   2.480
11613SOL    HW138633   2.158   9.467   2.513
11613SOL    HW238634   2.164   9.310   2.557
11614SOL     OW38635   3.484   9.677   2.236
11614SOL    HW138636   3.486   9.601   2.300
11614SOL    HW238637   3.436   9.754   2.276
11615SOL     OW38638   3.402   9.584   1.987
11615SOL    HW138639   3.341   9.509   2.010
11615SOL    HW238640   3.424   9.636   2.070
11616SOL     OW38641   2.181  10.120   2.811
11616SOL    HW138642   2.274  10.156   2.816
11616SOL    HW238643   2.175  10.035   2.863
11617SOL     OW38644   2.201   9.819   2.868
11617SOL    HW138645   2.149   9.736   2.851
11617SOL    HW238646   2.278   9.824   2.804
11618SOL     OW38647   3.000   9.690   3.540
11618SOL    HW138648   2.955   9.753   3.604
11618SOL    HW238649   3.093   9.721   3.523
11619SOL     OW38650   3.022   9.517   3.339
11619SOL    HW138651   3.022   9.581   3.416
11619SOL    HW238652   3.050   9.565   3.256
11620SOL     OW38653   1.902   9.854   2.976
11620SOL    HW138654   1.987   9.821   2.935
11620SOL    HW238655   1.915   9.869   3.074
11621SOL     OW38656   2.051   9.830   3.584
11621SOL    HW138657   2.110   9.790   3.514
11621SOL    HW238658   1.993   9.901   3.543
11622SOL     OW38659   2.677   9.882   2.187
11622SOL    HW138660   2.684   9.793   2.141
11622SOL    HW238661   2.583   9.916   2.179
11623SOL     OW38662   3.519   9.914   3.068
11623SOL    HW138663   3.481   9.845   3.130
11623SOL    HW238664   3.601   9.878   3.024
11624SOL     OW38665   2.533   9.774   3.131
11624SOL    HW138666   2.499   9.685   3.101
11624SOL    HW238667   2.559   9.828   3.051
11625SOL     OW38668   3.588   9.445   2.385
11625SOL    HW138669   3.661   9.428   2.318
11625SOL    HW238670   3.557   9.358   2.423
11626SOL     OW38671   3.703   9.485   2.825
11626SOL    HW138672   3.742   9.400   2.789
11626SOL    HW238673   3.605   9.487   2.806
11627SOL     OW38674   2.125   9.636   2.582
11627SOL    HW138675   2.046   9.687   2.548
11627SOL    HW238676   2.116   9.621   2.680
11628SOL     OW38677   2.876   9.546   2.833
11628SOL    HW138678   2.868   9.510   2.740
11628SOL    HW238679   2.874   9.470   2.898
11629SOL     OW38680   3.571   9.695   3.243
11629SOL    HW138681   3.644   9.764   3.247
11629SOL    HW238682   3.599   9.620   3.184
11630SOL     OW38683   1.937   9.655   1.895
11630SOL    HW138684   1.845   9.627   1.866
11630SOL    HW238685   1.968   9.732   1.839
11631SOL     OW38686   1.934   9.476   2.180
11631SOL    HW138687   1.917   9.559   2.126
11631SOL    HW238688   2.024   9.439   2.158
11632SOL     OW38689   3.087   9.635   2.311
11632SOL    HW138690   3.152   9.561   2.300
11632SOL    HW238691   3.107   9.685   2.395
11633SOL     OW38692   3.639   9.652   3.504
11633SOL    HW138693   3.622   9.683   3.410
11633SOL    HW238694   3.555   9.615   3.542
11634SOL     OW38695   2.945  10.294   1.949
11634SOL    HW138696   2.922  10.347   1.867
11634SOL    HW238697   3.026  10.238   1.930
11635SOL     OW38698   3.686   9.502   3.089
11635SOL    HW138699   3.682   9.412   3.133
11635SOL    HW238700   3.689   9.491   2.990
11636SOL     OW38701   2.290   9.734   2.382
11636SOL    HW138702   2.320   9.662   2.320
11636SOL    HW238703   2.251   9.694   2.465
11637SOL     OW38704   2.179   9.857   3.142
11637SOL    HW138705   2.217   9.798   3.214
11637SOL    HW238706   2.219   9.831   3.054
11638SOL     OW38707   3.286   9.524   2.974
11638SOL    HW138708   3.338   9.459   3.029
11638SOL    HW238709   3.237   9.587   3.035
11639SOL     OW38710   2.863   9.344   3.016
11639SOL    HW138711   2.800   9.272   2.985
11639SOL    HW238712   2.956   9.308   3.016
11640SOL     OW38713   3.214   9.362   2.030
11640SOL    HW138714   3.249   9.321   1.946
11640SOL    HW238715   3.124   9.324   2.050
11641SOL     OW38716   3.162   9.763   2.553
11641SOL    HW138717   3.103   9.843   2.557
11641SOL    HW238718   3.177   9.728   2.646
11642SOL     OW38719   3.455   9.531   2.744
11642SOL    HW138720   3.371   9.530   2.798
11642SOL    HW238721   3.457   9.614   2.688
11643SOL     OW38722   2.087   9.585   4.720
11643SOL    HW138723   2.122   9.568   4.812
11643SOL    HW238724   1.999   9.540   4.708
11644SOL     OW38725   1.881   9.678   4.371
11644SOL    HW138726   1.799   9.721   4.410
11644SOL    HW238727   1.853   9.605   4.308
11645SOL     OW38728   3.617   9.917   3.955
11645SOL    HW138729   3.605   9.904   3.856
11645SOL    HW238730   3.587   9.836   4.004
11646SOL     OW38731   3.465   9.757   4.461
11646SOL    HW138732   3.391   9.803   4.411
11646SOL    HW238733   3.516   9.825   4.514
11647SOL     OW38734   3.456   9.424   5.204
11647SOL    HW138735   3.438   9.491   5.132
11647SOL    HW238736   3.453   9.470   5.293
11648SOL     OW38737   2.671   9.314   4.226
11648SOL    HW138738   2.711   9.405   4.217
11648SOL    HW238739   2.571   9.322   4.232
11649SOL     OW38740   2.179   9.561   5.525
11649SOL    HW138741   2.250   9.632   5.531
11649SOL    HW238742   2.091   9.600   5.553
11650SOL     OW38743   3.143   9.655   4.668
11650SOL    HW138744   3.057   9.605   4.655
11650SOL    HW238745   3.205   9.601   4.724
11651SOL     OW38746   2.669   9.915   5.189
11651SOL    HW138747   2.622   9.912   5.278
11651SOL    HW238748   2.618   9.860   5.123
11652SOL     OW38749   3.256   9.779   5.398
11652SOL    HW138750   3.236   9.822   5.486
11652SOL    HW238751   3.334   9.717   5.407
11653SOL     OW38752   2.853   9.720   4.966
11653SOL    HW138753   2.776   9.754   5.020
11653SOL    HW238754   2.819   9.669   4.887
11654SOL     OW38755   3.581   9.895   5.555
11654SOL    HW138756   3.555   9.984   5.519
11654SOL    HW238757   3.579   9.827   5.482
11655SOL     OW38758   2.412   9.506   4.609
11655SOL    HW138759   2.407   9.501   4.709
11655SOL    HW238760   2.414   9.602   4.580
11656SOL     OW38761   2.064   9.595   5.222
11656SOL    HW138762   1.984   9.655   5.209
11656SOL    HW238763   2.054   9.546   5.308
11657SOL     OW38764   3.262   9.417   4.150
11657SOL    HW138765   3.238   9.380   4.060
11657SOL    HW238766   3.361   9.433   4.154
11658SOL     OW38767   3.409   9.532   5.453
11658SOL    HW138768   3.404   9.569   5.545
11658SOL    HW238769   3.337   9.463   5.441
11659SOL     OW38770   2.476   9.432   3.841
11659SOL    HW138771   2.574   9.410   3.848
11659SOL    HW238772   2.445   9.415   3.748
11660SOL     OW38773   2.643   9.574   5.473
11660SOL    HW138774   2.710   9.513   5.516
11660SOL    HW238775   2.570   9.593   5.538
11661SOL     OW38776   3.213   9.900   5.157
11661SOL    HW138777   3.241   9.857   5.242
11661SOL    HW238778   3.238   9.996   5.158
11662SOL     OW38779   2.784   9.813   4.623
11662SOL    HW138780   2.759   9.804   4.527
11662SOL    HW238781   2.832   9.731   4.654
11663SOL     OW38782   2.401   9.374   4.236
11663SOL    HW138783   2.320   9.375   4.294
11663SOL    HW238784   2.404   9.457   4.181
11664SOL     OW38785   2.159   9.345   3.895
11664SOL    HW138786   2.208   9.429   3.874
11664SOL    HW238787   2.221   9.280   3.940
11665SOL     OW38788   2.938   9.993   5.188
11665SOL    HW138789   2.858   9.932   5.191
11665SOL    HW238790   3.019   9.940   5.164
11666SOL     OW38791   1.940   9.866   5.110
11666SOL    HW138792   2.032   9.865   5.069
11666SOL    HW238793   1.934   9.940   5.177
11667SOL     OW38794   2.728   9.764   4.366
11667SOL    HW138795   2.696   9.836   4.304
11667SOL    HW238796   2.752   9.683   4.313
11668SOL     OW38797   2.879   9.349   4.477
11668SOL    HW138798   2.807   9.354   4.408
11668SOL    HW238799   2.855   9.280   4.546
11669SOL     OW38800   3.328   9.900   4.716
11669SOL    HW138801   3.298   9.805   4.723
11669SOL    HW238802   3.401   9.916   4.782
11670SOL     OW38803   2.389   9.566   4.052
11670SOL    HW138804   2.416   9.507   3.977
11670SOL    HW238805   2.389   9.661   4.021
11671SOL     OW38806   2.777   9.399   5.126
11671SOL    HW138807   2.802   9.379   5.031
11671SOL    HW238808   2.849   9.455   5.168
11672SOL     OW38809   3.136   9.696   4.986
11672SOL    HW138810   3.157   9.770   5.050
11672SOL    HW238811   3.047   9.713   4.943
11673SOL     OW38812   2.428   9.847   4.589
11673SOL    HW138813   2.440   9.913   4.515
11673SOL    HW238814   2.474   9.881   4.672
11674SOL     OW38815   3.444   9.949   4.196
11674SOL    HW138816   3.413  10.010   4.269
11674SOL    HW238817   3.494  10.001   4.127
11675SOL     OW38818   2.875   9.415   5.494
11675SOL    HW138819   2.881   9.500   5.442
11675SOL    HW238820   2.907   9.339   5.437
11676SOL     OW38821   3.071   9.835   3.999
11676SOL    HW138822   3.084   9.751   4.053
11676SOL    HW238823   3.042   9.909   4.059
11677SOL     OW38824   2.169   9.523   4.955
11677SOL    HW138825   2.146   9.560   5.045
11677SOL    HW238826   2.139   9.428   4.949
11678SOL     OW38827   2.594   9.944   4.788
11678SOL    HW138828   2.653   9.918   4.712
11678SOL    HW238829   2.566  10.040   4.777
11679SOL     OW38830   2.169   9.373   4.342
11679SOL    HW138831   2.158   9.467   4.375
11679SOL    HW238832   2.164   9.310   4.419
11680SOL     OW38833   3.484   9.677   4.098
11680SOL    HW138834   3.486   9.601   4.162
11680SOL    HW238835   3.436   9.754   4.138
11681SOL     OW38836   3.402   9.584   3.849
11681SOL    HW138837   3.341   9.509   3.872
11681SOL    HW238838   3.424   9.636   3.932
11682SOL     OW38839   2.201   9.819   4.730
11682SOL    HW138840   2.149   9.736   4.713
11682SOL    HW238841   2.278   9.824   4.666
11683SOL     OW38842   3.000   9.690   5.402
11683SOL    HW138843   2.955   9.753   5.466
11683SOL    HW238844   3.093   9.721   5.385
11684SOL     OW38845   3.022   9.517   5.201
11684SOL    HW138846   3.022   9.581   5.278
11684SOL    HW238847   3.050   9.565   5.118
11685SOL     OW38848   1.902   9.854   4.838
11685SOL    HW138849   1.987   9.821   4.797
11685SOL    HW238850   1.915   9.869   4.936
11686SOL     OW38851   2.051   9.830   5.446
11686SOL    HW138852   2.110   9.790   5.376
11686SOL    HW238853   1.993   9.901   5.405
11687SOL     OW38854   3.519   9.914   4.930
11687SOL    HW138855   3.481   9.845   4.992
11687SOL    HW238856   3.601   9.878   4.886
11688SOL     OW38857   3.588   9.445   4.247
11688SOL    HW138858   3.661   9.428   4.180
11688SOL    HW238859   3.557   9.358   4.285
11689SOL     OW38860   3.703   9.485   4.687
11689SOL    HW138861   3.742   9.400   4.651
11689SOL    HW238862   3.605   9.487   4.668
11690SOL     OW38863   2.125   9.636   4.444
11690SOL    HW138864   2.046   9.687   4.410
11690SOL    HW238865   2.116   9.621   4.542
11691SOL     OW38866   2.876   9.546   4.695
11691SOL    HW138867   2.868   9.510   4.602
11691SOL    HW238868   2.874   9.470   4.760
11692SOL     OW38869   3.571   9.695   5.105
11692SOL    HW138870   3.644   9.764   5.109
11692SOL    HW238871   3.599   9.620   5.046
11693SOL     OW38872   1.937   9.655   3.757
11693SOL    HW138873   1.845   9.627   3.728
11693SOL    HW238874   1.968   9.732   3.701
11694SOL     OW38875   1.934   9.476   4.042
11694SOL    HW138876   1.917   9.559   3.988
11694SOL    HW238877   2.024   9.439   4.020
11695SOL     OW38878   2.578   9.875   5.432
11695SOL    HW138879   2.597   9.940   5.506
11695SOL    HW238880   2.638   9.795   5.441
11696SOL     OW38881   3.087   9.635   4.173
11696SOL    HW138882   3.152   9.561   4.162
11696SOL    HW238883   3.107   9.685   4.257
11697SOL     OW38884   3.639   9.652   5.366
11697SOL    HW138885   3.622   9.683   5.272
11697SOL    HW238886   3.555   9.615   5.404
11698SOL     OW38887   2.945  10.294   3.811
11698SOL    HW138888   2.922  10.347   3.729
11698SOL    HW238889   3.026  10.238   3.792
11699SOL     OW38890   3.686   9.502   4.951
11699SOL    HW138891   3.682   9.412   4.995
11699SOL    HW238892   3.689   9.491   4.852
11700SOL     OW38893   2.290   9.734   4.244
11700SOL    HW138894   2.320   9.662   4.182
11700SOL    HW238895   2.251   9.694   4.327
11701SOL     OW38896   2.179   9.857   5.004
11701SOL    HW138897   2.217   9.798   5.076
11701SOL    HW238898   2.219   9.831   4.916
11702SOL     OW38899   3.286   9.524   4.836
11702SOL    HW138900   3.338   9.459   4.891
11702SOL    HW238901   3.237   9.587   4.897
11703SOL     OW38902   2.863   9.344   4.878
11703SOL    HW138903   2.800   9.272   4.847
11703SOL    HW238904   2.956   9.308   4.878
11704SOL     OW38905   3.214   9.362   3.892
11704SOL    HW138906   3.249   9.321   3.808
11704SOL    HW238907   3.124   9.324   3.912
11705SOL     OW38908   3.162   9.763   4.415
11705SOL    HW138909   3.103   9.843   4.419
11705SOL    HW238910   3.177   9.728   4.508
11706SOL     OW38911   3.455   9.531   4.606
11706SOL    HW138912   3.371   9.530   4.660
11706SOL    HW238913   3.457   9.614   4.550
11707SOL     OW38914   2.087   9.585   6.582
11707SOL    HW138915   2.122   9.568   6.674
11707SOL    HW238916   1.999   9.540   6.570
11708SOL     OW38917   1.881   9.678   6.233
11708SOL    HW138918   1.799   9.721   6.272
11708SOL    HW238919   1.853   9.605   6.170
11709SOL     OW38920   3.617   9.917   5.817
11709SOL    HW138921   3.605   9.904   5.718
11709SOL    HW238922   3.587   9.836   5.866
11710SOL     OW38923   2.300   9.702   7.085
11710SOL    HW138924   2.382   9.646   7.094
11710SOL    HW238925   2.219   9.644   7.089
11711SOL     OW38926   3.465   9.757   6.323
11711SOL    HW138927   3.391   9.803   6.273
11711SOL    HW238928   3.516   9.825   6.376
11712SOL     OW38929   3.456   9.424   7.066
11712SOL    HW138930   3.438   9.491   6.994
11712SOL    HW238931   3.453   9.470   7.155
11713SOL     OW38932   1.984   9.953   6.149
11713SOL    HW138933   1.939   9.865   6.166
11713SOL    HW238934   1.983  10.007   6.233
11714SOL     OW38935   2.671   9.314   6.088
11714SOL    HW138936   2.711   9.405   6.079
11714SOL    HW238937   2.571   9.322   6.094
11715SOL     OW38938   2.179   9.561   7.387
11715SOL    HW138939   2.250   9.632   7.393
11715SOL    HW238940   2.091   9.600   7.415
11716SOL     OW38941   3.143   9.655   6.530
11716SOL    HW138942   3.057   9.605   6.517
11716SOL    HW238943   3.205   9.601   6.586
11717SOL     OW38944   2.669   9.915   7.051
11717SOL    HW138945   2.622   9.912   7.140
11717SOL    HW238946   2.618   9.860   6.985
11718SOL     OW38947   3.256   9.779   7.260
11718SOL    HW138948   3.236   9.822   7.348
11718SOL    HW238949   3.334   9.717   7.269
11719SOL     OW38950   2.853   9.720   6.828
11719SOL    HW138951   2.776   9.754   6.882
11719SOL    HW238952   2.819   9.669   6.749
11720SOL     OW38953   2.903  10.011   6.015
11720SOL    HW138954   2.929  10.007   6.111
11720SOL    HW238955   2.818   9.960   6.001
11721SOL     OW38956   2.727   9.658   5.781
11721SOL    HW138957   2.786   9.721   5.732
11721SOL    HW238958   2.746   9.564   5.752
11722SOL     OW38959   3.581   9.895   7.417
11722SOL    HW138960   3.555   9.984   7.381
11722SOL    HW238961   3.579   9.827   7.344
11723SOL     OW38962   2.412   9.506   6.471
11723SOL    HW138963   2.407   9.501   6.571
11723SOL    HW238964   2.414   9.602   6.442
11724SOL     OW38965   3.320  10.045   6.314
11724SOL    HW138966   3.315   9.980   6.389
11724SOL    HW238967   3.400  10.104   6.327
11725SOL     OW38968   2.064   9.595   7.084
11725SOL    HW138969   1.984   9.655   7.071
11725SOL    HW238970   2.054   9.546   7.170
11726SOL     OW38971   3.262   9.417   6.012
11726SOL    HW138972   3.238   9.380   5.922
11726SOL    HW238973   3.361   9.433   6.016
11727SOL     OW38974   3.409   9.532   7.315
11727SOL    HW138975   3.404   9.569   7.407
11727SOL    HW238976   3.337   9.463   7.303
11728SOL     OW38977   2.476   9.432   5.703
11728SOL    HW138978   2.574   9.410   5.710
11728SOL    HW238979   2.445   9.415   5.610
11729SOL     OW38980   2.643   9.574   7.335
11729SOL    HW138981   2.710   9.513   7.378
11729SOL    HW238982   2.570   9.593   7.400
11730SOL     OW38983   3.213   9.900   7.019
11730SOL    HW138984   3.241   9.857   7.104
11730SOL    HW238985   3.238   9.996   7.020
11731SOL     OW38986   2.784   9.813   6.485
11731SOL    HW138987   2.759   9.804   6.389
11731SOL    HW238988   2.832   9.731   6.516
11732SOL     OW38989   2.401   9.374   6.098
11732SOL    HW138990   2.320   9.375   6.156
11732SOL    HW238991   2.404   9.457   6.043
11733SOL     OW38992   2.159   9.345   5.757
11733SOL    HW138993   2.208   9.429   5.736
11733SOL    HW238994   2.221   9.280   5.802
11734SOL     OW38995   2.797   9.546   6.066
11734SOL    HW138996   2.749   9.587   5.988
11734SOL    HW238997   2.896   9.544   6.047
11735SOL     OW38998   2.938   9.993   7.050
11735SOL    HW138999   2.858   9.932   7.053
11735SOL    HW239000   3.019   9.940   7.026
11736SOL     OW39001   2.894   9.859   5.602
11736SOL    HW139002   2.853   9.941   5.563
11736SOL    HW239003   2.958   9.885   5.675
11737SOL     OW39004   1.940   9.866   6.972
11737SOL    HW139005   2.032   9.865   6.931
11737SOL    HW239006   1.934   9.940   7.039
11738SOL     OW39007   2.728   9.764   6.228
11738SOL    HW139008   2.696   9.836   6.166
11738SOL    HW239009   2.752   9.683   6.175
11739SOL     OW39010   2.879   9.349   6.339
11739SOL    HW139011   2.807   9.354   6.270
11739SOL    HW239012   2.855   9.280   6.408
11740SOL     OW39013   3.328   9.900   6.578
11740SOL    HW139014   3.298   9.805   6.585
11740SOL    HW239015   3.401   9.916   6.644
11741SOL     OW39016   2.389   9.566   5.914
11741SOL    HW139017   2.416   9.507   5.839
11741SOL    HW239018   2.389   9.661   5.883
11742SOL     OW39019   2.777   9.399   6.988
11742SOL    HW139020   2.802   9.379   6.893
11742SOL    HW239021   2.849   9.455   7.030
11743SOL     OW39022   3.136   9.696   6.848
11743SOL    HW139023   3.157   9.770   6.912
11743SOL    HW239024   3.047   9.713   6.805
11744SOL     OW39025   3.444   9.949   6.058
11744SOL    HW139026   3.413  10.010   6.131
11744SOL    HW239027   3.494  10.001   5.989
11745SOL     OW39028   2.875   9.415   7.356
11745SOL    HW139029   2.881   9.500   7.304
11745SOL    HW239030   2.907   9.339   7.299
11746SOL     OW39031   2.366   9.360   7.326
11746SOL    HW139032   2.324   9.303   7.256
11746SOL    HW239033   2.300   9.429   7.358
11747SOL     OW39034   3.071   9.835   5.861
11747SOL    HW139035   3.084   9.751   5.915
11747SOL    HW239036   3.042   9.909   5.921
11748SOL     OW39037   2.169   9.523   6.817
11748SOL    HW139038   2.146   9.560   6.907
11748SOL    HW239039   2.139   9.428   6.811
11749SOL     OW39040   2.169   9.373   6.204
11749SOL    HW139041   2.158   9.467   6.237
11749SOL    HW239042   2.164   9.310   6.281
11750SOL     OW39043   3.484   9.677   5.960
11750SOL    HW139044   3.486   9.601   6.024
11750SOL    HW239045   3.436   9.754   6.000
11751SOL     OW39046   3.402   9.584   5.711
11751SOL    HW139047   3.341   9.509   5.734
11751SOL    HW239048   3.424   9.636   5.794
11752SOL     OW39049   2.181  10.120   6.535
11752SOL    HW139050   2.274  10.156   6.540
11752SOL    HW239051   2.175  10.035   6.587
11753SOL     OW39052   2.201   9.819   6.592
11753SOL    HW139053   2.149   9.736   6.575
11753SOL    HW239054   2.278   9.824   6.528
11754SOL     OW39055   3.000   9.690   7.264
11754SOL    HW139056   2.955   9.753   7.328
11754SOL    HW239057   3.093   9.721   7.247
11755SOL     OW39058   3.022   9.517   7.063
11755SOL    HW139059   3.022   9.581   7.140
11755SOL    HW239060   3.050   9.565   6.980
11756SOL     OW39061   1.902   9.854   6.700
11756SOL    HW139062   1.987   9.821   6.659
11756SOL    HW239063   1.915   9.869   6.798
11757SOL     OW39064   2.051   9.830   7.308
11757SOL    HW139065   2.110   9.790   7.238
11757SOL    HW239066   1.993   9.901   7.267
11758SOL     OW39067   2.677   9.882   5.911
11758SOL    HW139068   2.684   9.793   5.865
11758SOL    HW239069   2.583   9.916   5.903
11759SOL     OW39070   3.519   9.914   6.792
11759SOL    HW139071   3.481   9.845   6.854
11759SOL    HW239072   3.601   9.878   6.748
11760SOL     OW39073   3.588   9.445   6.109
11760SOL    HW139074   3.661   9.428   6.042
11760SOL    HW239075   3.557   9.358   6.147
11761SOL     OW39076   3.703   9.485   6.549
11761SOL    HW139077   3.742   9.400   6.513
11761SOL    HW239078   3.605   9.487   6.530
11762SOL     OW39079   2.125   9.636   6.306
11762SOL    HW139080   2.046   9.687   6.272
11762SOL    HW239081   2.116   9.621   6.404
11763SOL     OW39082   2.876   9.546   6.557
11763SOL    HW139083   2.868   9.510   6.464
11763SOL    HW239084   2.874   9.470   6.622
11764SOL     OW39085   3.571   9.695   6.967
11764SOL    HW139086   3.644   9.764   6.971
11764SOL    HW239087   3.599   9.620   6.908
11765SOL     OW39088   2.534   9.513   7.075
11765SOL    HW139089   2.624   9.497   7.035
11765SOL    HW239090   2.542   9.518   7.174
11766SOL     OW39091   1.937   9.655   5.619
11766SOL    HW139092   1.845   9.627   5.590
11766SOL    HW239093   1.968   9.732   5.563
11767SOL     OW39094   1.934   9.476   5.904
11767SOL    HW139095   1.917   9.559   5.850
11767SOL    HW239096   2.024   9.439   5.882
11768SOL     OW39097   2.578   9.875   7.294
11768SOL    HW139098   2.597   9.940   7.368
11768SOL    HW239099   2.638   9.795   7.303
11769SOL     OW39100   3.087   9.635   6.035
11769SOL    HW139101   3.152   9.561   6.024
11769SOL    HW239102   3.107   9.685   6.119
11770SOL     OW39103   3.639   9.652   7.228
11770SOL    HW139104   3.622   9.683   7.134
11770SOL    HW239105   3.555   9.615   7.266
11771SOL     OW39106   2.945  10.294   5.673
11771SOL    HW139107   2.922  10.347   5.591
11771SOL    HW239108   3.026  10.238   5.654
11772SOL     OW39109   3.686   9.502   6.813
11772SOL    HW139110   3.682   9.412   6.857
11772SOL    HW239111   3.689   9.491   6.714
11773SOL     OW39112   2.290   9.734   6.106
11773SOL    HW139113   2.320   9.662   6.044
11773SOL    HW239114   2.251   9.694   6.189
11774SOL     OW39115   2.179   9.857   6.866
11774SOL    HW139116   2.217   9.798   6.938
11774SOL    HW239117   2.219   9.831   6.778
11775SOL     OW39118   3.286   9.524   6.698
11775SOL    HW139119   3.338   9.459   6.753
11775SOL    HW239120   3.237   9.587   6.759
11776SOL     OW39121   2.863   9.344   6.740
11776SOL    HW139122   2.800   9.272   6.709
11776SOL    HW239123   2.956   9.308   6.740
11777SOL     OW39124   3.214   9.362   5.754
11777SOL    HW139125   3.249   9.321   5.670
11777SOL    HW239126   3.124   9.324   5.774
11778SOL     OW39127   3.162   9.763   6.277
11778SOL    HW139128   3.103   9.843   6.281
11778SOL    HW239129   3.177   9.728   6.370
11779SOL     OW39130   3.455   9.531   6.468
11779SOL    HW139131   3.371   9.530   6.522
11779SOL    HW239132   3.457   9.614   6.412
11780SOL     OW39133   2.087   9.585   8.444
11780SOL    HW139134   2.122   9.568   8.536
11780SOL    HW239135   1.999   9.540   8.432
11781SOL     OW39136   1.881   9.678   8.095
11781SOL    HW139137   1.799   9.721   8.134
11781SOL    HW239138   1.853   9.605   8.032
11782SOL     OW39139   3.617   9.917   7.679
11782SOL    HW139140   3.605   9.904   7.580
11782SOL    HW239141   3.587   9.836   7.728
11783SOL     OW39142   2.300   9.702   8.947
11783SOL    HW139143   2.382   9.646   8.956
11783SOL    HW239144   2.219   9.644   8.951
11784SOL     OW39145   3.465   9.757   8.185
11784SOL    HW139146   3.391   9.803   8.135
11784SOL    HW239147   3.516   9.825   8.238
11785SOL     OW39148   1.984   9.953   8.011
11785SOL    HW139149   1.939   9.865   8.028
11785SOL    HW239150   1.983  10.007   8.095
11786SOL     OW39151   2.671   9.314   7.950
11786SOL    HW139152   2.711   9.405   7.941
11786SOL    HW239153   2.571   9.322   7.956
11787SOL     OW39154   2.179   9.561   9.249
11787SOL    HW139155   2.250   9.632   9.255
11787SOL    HW239156   2.091   9.600   9.277
11788SOL     OW39157   2.669   9.915   8.913
11788SOL    HW139158   2.622   9.912   9.002
11788SOL    HW239159   2.618   9.860   8.847
11789SOL     OW39160   3.256   9.779   9.122
11789SOL    HW139161   3.236   9.822   9.210
11789SOL    HW239162   3.334   9.717   9.131
11790SOL     OW39163   2.853   9.720   8.690
11790SOL    HW139164   2.776   9.754   8.744
11790SOL    HW239165   2.819   9.669   8.611
11791SOL     OW39166   2.903  10.011   7.877
11791SOL    HW139167   2.929  10.007   7.973
11791SOL    HW239168   2.818   9.960   7.863
11792SOL     OW39169   2.727   9.658   7.643
11792SOL    HW139170   2.786   9.721   7.594
11792SOL    HW239171   2.746   9.564   7.614
11793SOL     OW39172   3.581   9.895   9.279
11793SOL    HW139173   3.555   9.984   9.243
11793SOL    HW239174   3.579   9.827   9.206
11794SOL     OW39175   2.412   9.506   8.333
11794SOL    HW139176   2.407   9.501   8.433
11794SOL    HW239177   2.414   9.602   8.304
11795SOL     OW39178   3.320  10.045   8.176
11795SOL    HW139179   3.315   9.980   8.251
11795SOL    HW239180   3.400  10.104   8.189
11796SOL     OW39181   2.064   9.595   8.946
11796SOL    HW139182   1.984   9.655   8.933
11796SOL    HW239183   2.054   9.546   9.032
11797SOL     OW39184   3.262   9.417   7.874
11797SOL    HW139185   3.238   9.380   7.784
11797SOL    HW239186   3.361   9.433   7.878
11798SOL     OW39187   2.476   9.432   7.565
11798SOL    HW139188   2.574   9.410   7.572
11798SOL    HW239189   2.445   9.415   7.472
11799SOL     OW39190   2.643   9.574   9.197
11799SOL    HW139191   2.710   9.513   9.240
11799SOL    HW239192   2.570   9.593   9.262
11800SOL     OW39193   3.213   9.900   8.881
11800SOL    HW139194   3.241   9.857   8.966
11800SOL    HW239195   3.238   9.996   8.882
11801SOL     OW39196   2.401   9.374   7.960
11801SOL    HW139197   2.320   9.375   8.018
11801SOL    HW239198   2.404   9.457   7.905
11802SOL     OW39199   2.159   9.345   7.619
11802SOL    HW139200   2.208   9.429   7.598
11802SOL    HW239201   2.221   9.280   7.664
11803SOL     OW39202   2.938   9.993   8.912
11803SOL    HW139203   2.858   9.932   8.915
11803SOL    HW239204   3.019   9.940   8.888
11804SOL     OW39205   2.894   9.859   7.464
11804SOL    HW139206   2.853   9.941   7.425
11804SOL    HW239207   2.958   9.885   7.537
11805SOL     OW39208   1.940   9.866   8.834
11805SOL    HW139209   2.032   9.865   8.793
11805SOL    HW239210   1.934   9.940   8.901
11806SOL     OW39211   2.423   9.532   8.595
11806SOL    HW139212   2.461   9.448   8.632
11806SOL    HW239213   2.335   9.551   8.639
11807SOL     OW39214   3.328   9.900   8.440
11807SOL    HW139215   3.298   9.805   8.447
11807SOL    HW239216   3.401   9.916   8.506
11808SOL     OW39217   2.389   9.566   7.776
11808SOL    HW139218   2.416   9.507   7.701
11808SOL    HW239219   2.389   9.661   7.745
11809SOL     OW39220   2.777   9.399   8.850
11809SOL    HW139221   2.802   9.379   8.755
11809SOL    HW239222   2.849   9.455   8.892
11810SOL     OW39223   3.136   9.696   8.710
11810SOL    HW139224   3.157   9.770   8.774
11810SOL    HW239225   3.047   9.713   8.667
11811SOL     OW39226   2.428   9.847   8.313
11811SOL    HW139227   2.440   9.913   8.239
11811SOL    HW239228   2.474   9.881   8.396
11812SOL     OW39229   3.444   9.949   7.920
11812SOL    HW139230   3.413  10.010   7.993
11812SOL    HW239231   3.494  10.001   7.851
11813SOL     OW39232   2.875   9.415   9.218
11813SOL    HW139233   2.881   9.500   9.166
11813SOL    HW239234   2.907   9.339   9.161
11814SOL     OW39235   2.366   9.360   9.188
11814SOL    HW139236   2.324   9.303   9.118
11814SOL    HW239237   2.300   9.429   9.220
11815SOL     OW39238   3.071   9.835   7.723
11815SOL    HW139239   3.084   9.751   7.777
11815SOL    HW239240   3.042   9.909   7.783
11816SOL     OW39241   2.169   9.523   8.679
11816SOL    HW139242   2.146   9.560   8.769
11816SOL    HW239243   2.139   9.428   8.673
11817SOL     OW39244   2.594   9.944   8.512
11817SOL    HW139245   2.653   9.918   8.436
11817SOL    HW239246   2.566  10.040   8.501
11818SOL     OW39247   3.484   9.677   7.822
11818SOL    HW139248   3.486   9.601   7.886
11818SOL    HW239249   3.436   9.754   7.862
11819SOL     OW39250   3.402   9.584   7.573
11819SOL    HW139251   3.341   9.509   7.596
11819SOL    HW239252   3.424   9.636   7.656
11820SOL     OW39253   2.181  10.120   8.397
11820SOL    HW139254   2.274  10.156   8.402
11820SOL    HW239255   2.175  10.035   8.449
11821SOL     OW39256   2.201   9.819   8.454
11821SOL    HW139257   2.149   9.736   8.437
11821SOL    HW239258   2.278   9.824   8.390
11822SOL     OW39259   3.000   9.690   9.126
11822SOL    HW139260   2.955   9.753   9.190
11822SOL    HW239261   3.093   9.721   9.109
11823SOL     OW39262   3.022   9.517   8.925
11823SOL    HW139263   3.022   9.581   9.002
11823SOL    HW239264   3.050   9.565   8.842
11824SOL     OW39265   1.902   9.854   8.562
11824SOL    HW139266   1.987   9.821   8.521
11824SOL    HW239267   1.915   9.869   8.660
11825SOL     OW39268   2.051   9.830   9.170
11825SOL    HW139269   2.110   9.790   9.100
11825SOL    HW239270   1.993   9.901   9.129
11826SOL     OW39271   2.677   9.882   7.773
11826SOL    HW139272   2.684   9.793   7.727
11826SOL    HW239273   2.583   9.916   7.765
11827SOL     OW39274   3.519   9.914   8.654
11827SOL    HW139275   3.481   9.845   8.716
11827SOL    HW239276   3.601   9.878   8.610
11828SOL     OW39277   2.533   9.774   8.717
11828SOL    HW139278   2.499   9.685   8.687
11828SOL    HW239279   2.559   9.828   8.637
11829SOL     OW39280   3.588   9.445   7.971
11829SOL    HW139281   3.661   9.428   7.904
11829SOL    HW239282   3.557   9.358   8.009
11830SOL     OW39283   3.703   9.485   8.411
11830SOL    HW139284   3.742   9.400   8.375
11830SOL    HW239285   3.605   9.487   8.392
11831SOL     OW39286   2.125   9.636   8.168
11831SOL    HW139287   2.046   9.687   8.134
11831SOL    HW239288   2.116   9.621   8.266
11832SOL     OW39289   2.876   9.546   8.419
11832SOL    HW139290   2.868   9.510   8.326
11832SOL    HW239291   2.874   9.470   8.484
11833SOL     OW39292   3.571   9.695   8.829
11833SOL    HW139293   3.644   9.764   8.833
11833SOL    HW239294   3.599   9.620   8.770
11834SOL     OW39295   2.534   9.513   8.937
11834SOL    HW139296   2.624   9.497   8.897
11834SOL    HW239297   2.542   9.518   9.036
11835SOL     OW39298   1.937   9.655   7.481
11835SOL    HW139299   1.845   9.627   7.452
11835SOL    HW239300   1.968   9.732   7.425
11836SOL     OW39301   1.934   9.476   7.766
11836SOL    HW139302   1.917   9.559   7.712
11836SOL    HW239303   2.024   9.439   7.744
11837SOL     OW39304   2.578   9.875   9.156
11837SOL    HW139305   2.597   9.940   9.230
11837SOL    HW239306   2.638   9.795   9.165
11838SOL     OW39307   2.945  10.294   7.535
11838SOL    HW139308   2.922  10.347   7.453
11838SOL    HW239309   3.026  10.238   7.516
11839SOL     OW39310   3.686   9.502   8.675
11839SOL    HW139311   3.682   9.412   8.719
11839SOL    HW239312   3.689   9.491   8.576
11840SOL     OW39313   2.290   9.734   7.968
11840SOL    HW139314   2.320   9.662   7.906
11840SOL    HW239315   2.251   9.694   8.051
11841SOL     OW39316   2.179   9.857   8.728
11841SOL    HW139317   2.217   9.798   8.800
11841SOL    HW239318   2.219   9.831   8.640
11842SOL     OW39319   3.214   9.362   7.616
11842SOL    HW139320   3.249   9.321   7.532
11842SOL    HW239321   3.124   9.324   7.636
11843SOL     OW39322   3.162   9.763   8.139
11843SOL    HW139323   3.103   9.843   8.143
11843SOL    HW239324   3.177   9.728   8.232
11844SOL     OW39325   3.455   9.531   8.330
11844SOL    HW139326   3.371   9.530   8.384
11844SOL    HW239327   3.457   9.614   8.274
11845SOL     OW39328   3.617   9.917   9.541
11845SOL    HW139329   3.605   9.904   9.442
11845SOL    HW239330   3.587   9.836   9.590
11846SOL     OW39331   1.984   9.953   9.873
11846SOL    HW139332   1.939   9.865   9.890
11846SOL    HW239333   1.983  10.007   9.957
11847SOL     OW39334   2.671   9.314   9.812
11847SOL    HW139335   2.711   9.405   9.803
11847SOL    HW239336   2.571   9.322   9.818
11848SOL     OW39337   2.903  10.011   9.739
11848SOL    HW139338   2.929  10.007   9.835
11848SOL    HW239339   2.818   9.960   9.725
11849SOL     OW39340   2.727   9.658   9.505
11849SOL    HW139341   2.786   9.721   9.456
11849SOL    HW239342   2.746   9.564   9.476
11850SOL     OW39343   3.262   9.417   9.736
11850SOL    HW139344   3.238   9.380   9.646
11850SOL    HW239345   3.361   9.433   9.740
11851SOL     OW39346   2.476   9.432   9.427
11851SOL    HW139347   2.574   9.410   9.434
11851SOL    HW239348   2.445   9.415   9.334
11852SOL     OW39349   2.401   9.374   9.822
11852SOL    HW139350   2.320   9.375   9.880
11852SOL    HW239351   2.404   9.457   9.767
11853SOL     OW39352   2.159   9.345   9.481
11853SOL    HW139353   2.208   9.429   9.460
11853SOL    HW239354   2.221   9.280   9.526
11854SOL     OW39355   2.797   9.546   9.790
11854SOL    HW139356   2.749   9.587   9.712
11854SOL    HW239357   2.896   9.544   9.771
11855SOL     OW39358   2.894   9.859   9.326
11855SOL    HW139359   2.853   9.941   9.287
11855SOL    HW239360   2.958   9.885   9.399
11856SOL     OW39361   2.728   9.764   9.952
11856SOL    HW139362   2.696   9.836   9.890
11856SOL    HW239363   2.752   9.683   9.899
11857SOL     OW39364   2.389   9.566   9.638
11857SOL    HW139365   2.416   9.507   9.563
11857SOL    HW239366   2.389   9.661   9.607
11858SOL     OW39367   3.444   9.949   9.782
11858SOL    HW139368   3.413  10.010   9.855
11858SOL    HW239369   3.494  10.001   9.713
11859SOL     OW39370   3.071   9.835   9.585
11859SOL    HW139371   3.084   9.751   9.639
11859SOL    HW239372   3.042   9.909   9.645
11860SOL     OW39373   2.169   9.373   9.928
11860SOL    HW139374   2.158   9.467   9.961
11860SOL    HW239375   2.164   9.310  10.005
11861SOL     OW39376   3.484   9.677   9.684
11861SOL    HW139377   3.486   9.601   9.748
11861SOL    HW239378   3.436   9.754   9.724
11862SOL     OW39379   3.402   9.584   9.435
11862SOL    HW139380   3.341   9.509   9.458
11862SOL    HW239381   3.424   9.636   9.518
11863SOL     OW39382   2.677   9.882   9.635
11863SOL    HW139383   2.684   9.793   9.589
11863SOL    HW239384   2.583   9.916   9.627
11864SOL     OW39385   3.588   9.445   9.833
11864SOL    HW139386   3.661   9.428   9.766
11864SOL    HW239387   3.557   9.358   9.871
11865SOL     OW39388   1.937   9.655   9.343
11865SOL    HW139389   1.845   9.627   9.314
11865SOL    HW239390   1.968   9.732   9.287
11866SOL     OW39391   1.934   9.476   9.628
11866SOL    HW139392   1.917   9.559   9.574
11866SOL    HW239393   2.024   9.439   9.606
11867SOL     OW39394   3.087   9.635   9.759
11867SOL    HW139395   3.152   9.561   9.748
11867SOL    HW239396   3.107   9.685   9.843
11868SOL     OW39397   2.945  10.294   9.397
11868SOL    HW139398   2.922  10.347   9.315
11868SOL    HW239399   3.026  10.238   9.378
11869SOL     OW39400   2.290   9.734   9.830
11869SOL    HW139401   2.320   9.662   9.768
11869SOL    HW239402   2.251   9.694   9.913
11870SOL     OW39403   3.214   9.362   9.478
11870SOL    HW139404   3.249   9.321   9.394
11870SOL    HW239405   3.124   9.324   9.498
11871SOL     OW39406   3.162   9.763  10.001
11871SOL    HW139407   3.103   9.843  10.005
11871SOL    HW239408   3.177   9.728  10.094
11872SOL     OW39409   3.954   0.628   0.113
11872SOL    HW139410   3.861   0.626   0.150
11872SOL    HW239411   3.955   0.589   0.021
11873SOL     OW39412   3.949   0.275   0.996
11873SOL    HW139413   3.984   0.258   1.088
11873SOL    HW239414   3.861   0.230   0.984
11874SOL     OW39415   3.743   0.368   0.647
11874SOL    HW139416   3.661   0.411   0.686
11874SOL    HW239417   3.715   0.295   0.584
11875SOL     OW39418   4.293   1.275   1.165
11875SOL    HW139419   4.200   1.268   1.128
11875SOL    HW239420   4.304   1.364   1.209
11876SOL     OW39421   5.279   1.511   0.703
11876SOL    HW139422   5.222   1.495   0.784
11876SOL    HW239423   5.220   1.521   0.623
11877SOL     OW39424   4.859   0.703   0.717
11877SOL    HW139425   4.916   0.781   0.692
11877SOL    HW239426   4.799   0.729   0.793
11878SOL     OW39427   5.479   0.607   0.231
11878SOL    HW139428   5.467   0.594   0.132
11878SOL    HW239429   5.449   0.526   0.280
11879SOL     OW39430   4.492   1.144   1.023
11879SOL    HW139431   4.414   1.161   1.083
11879SOL    HW239432   4.526   1.231   0.987
11880SOL     OW39433   4.574   0.798   1.823
11880SOL    HW139434   4.570   0.874   1.888
11880SOL    HW239435   4.596   0.834   1.732
11881SOL     OW39436   4.409   1.012   0.665
11881SOL    HW139437   4.478   0.996   0.735
11881SOL    HW239438   4.336   1.069   0.703
11882SOL     OW39439   4.410   1.161   1.803
11882SOL    HW139440   4.470   1.240   1.817
11882SOL    HW239441   4.324   1.192   1.762
11883SOL     OW39442   4.059   1.435   1.061
11883SOL    HW139443   3.981   1.404   1.008
11883SOL    HW239444   4.117   1.493   1.004
11884SOL     OW39445   5.184   1.505   1.339
11884SOL    HW139446   5.208   1.599   1.365
11884SOL    HW239447   5.168   1.451   1.421
11885SOL     OW39448   4.162   0.392   1.499
11885SOL    HW139449   4.244   0.336   1.508
11885SOL    HW239450   4.081   0.334   1.503
11886SOL     OW39451   5.327   0.447   0.737
11886SOL    HW139452   5.253   0.493   0.687
11886SOL    HW239453   5.378   0.515   0.790
11887SOL     OW39454   3.955   1.713   0.483
11887SOL    HW139455   3.989   1.790   0.537
11887SOL    HW239456   3.999   1.713   0.393
11888SOL     OW39457   4.851   1.341   1.690
11888SOL    HW139458   4.898   1.341   1.778
11888SOL    HW239459   4.803   1.254   1.679
11889SOL     OW39460   3.954   1.434   0.538
11889SOL    HW139461   3.928   1.530   0.538
11889SOL    HW239462   3.883   1.380   0.583
11890SOL     OW39463   3.964   1.091   0.886
11890SOL    HW139464   3.978   1.007   0.938
11890SOL    HW239465   3.909   1.155   0.941
11891SOL     OW39466   4.344   1.786   1.439
11891SOL    HW139467   4.252   1.769   1.474
11891SOL    HW239468   4.372   1.878   1.465
11892SOL     OW39469   4.330   0.964   0.123
11892SOL    HW139470   4.337   1.048   0.069
11892SOL    HW239471   4.376   0.977   0.211
11893SOL     OW39472   5.318   0.114   1.480
11893SOL    HW139473   5.300   0.181   1.408
11893SOL    HW239474   5.315   0.160   1.569
11894SOL     OW39475   3.846   0.643   0.563
11894SOL    HW139476   3.801   0.555   0.580
11894SOL    HW239477   3.845   0.697   0.647
11895SOL     OW39478   5.566   1.767   0.359
11895SOL    HW139479   5.620   1.738   0.439
11895SOL    HW239480   5.596   1.857   0.330
11896SOL     OW39481   3.751   1.596   0.117
11896SOL    HW139482   3.732   1.500   0.138
11896SOL    HW239483   3.718   1.654   0.192
11897SOL     OW39484   5.413   0.922   0.612
11897SOL    HW139485   5.508   0.893   0.620
11897SOL    HW239486   5.405   0.987   0.537
11898SOL     OW39487   5.365   1.108   0.432
11898SOL    HW139488   5.451   1.110   0.380
11898SOL    HW239489   5.379   1.155   0.520
11899SOL     OW39490   3.837   0.737   1.597
11899SOL    HW139491   3.925   0.724   1.642
11899SOL    HW239492   3.824   0.834   1.575
11900SOL     OW39493   5.017   1.228   1.423
11900SOL    HW139494   5.054   1.155   1.365
11900SOL    HW239495   5.069   1.233   1.508
11901SOL     OW39496   4.533   0.004   0.502
11901SOL    HW139497   4.573   0.095   0.493
11901SOL    HW239498   4.433   0.012   0.508
11902SOL     OW39499   3.921   0.976   1.264
11902SOL    HW139500   4.010   0.931   1.250
11902SOL    HW239501   3.848   0.911   1.245
11903SOL     OW39502   5.249   0.999   0.190
11903SOL    HW139503   5.186   0.923   0.203
11903SOL    HW239504   5.297   1.017   0.276
11904SOL     OW39505   4.911   1.792   1.616
11904SOL    HW139506   4.935   1.852   1.540
11904SOL    HW239507   4.918   1.697   1.586
11905SOL     OW39508   4.041   0.251   1.801
11905SOL    HW139509   4.112   0.322   1.807
11905SOL    HW239510   3.953   0.290   1.829
11906SOL     OW39511   5.190   1.417   0.953
11906SOL    HW139512   5.131   1.423   1.033
11906SOL    HW239513   5.175   1.329   0.907
11907SOL     OW39514   5.391   1.714   0.572
11907SOL    HW139515   5.350   1.691   0.484
11907SOL    HW239516   5.373   1.640   0.637
11908SOL     OW39517   4.322   0.729   0.270
11908SOL    HW139518   4.346   0.798   0.202
11908SOL    HW239519   4.244   0.762   0.324
11909SOL     OW39520   5.300   1.662   0.307
11909SOL    HW139521   5.389   1.708   0.310
11909SOL    HW239522   5.279   1.638   0.212
11910SOL     OW39523   4.531   0.605   1.465
11910SOL    HW139524   4.484   0.602   1.554
11910SOL    HW239525   4.480   0.550   1.399
11911SOL     OW39526   5.118   0.469   1.674
11911SOL    HW139527   5.098   0.512   1.762
11911SOL    HW239528   5.196   0.407   1.683
11912SOL     OW39529   4.697   0.890   1.572
11912SOL    HW139530   4.743   0.806   1.543
11912SOL    HW239531   4.641   0.924   1.497
11913SOL     OW39532   4.765   0.701   0.429
11913SOL    HW139533   4.791   0.697   0.525
11913SOL    HW239534   4.680   0.650   0.415
11914SOL     OW39535   3.800   0.811   0.789
11914SOL    HW139536   3.899   0.799   0.798
11914SOL    HW239537   3.776   0.906   0.810
11915SOL     OW39538   3.854   1.821   1.571
11915SOL    HW139539   3.844   1.806   1.670
11915SOL    HW239540   3.768   1.857   1.535
11916SOL     OW39541   4.589   0.348   0.195
11916SOL    HW139542   4.648   0.411   0.146
11916SOL    HW239543   4.608   0.254   0.166
11917SOL     OW39544   5.443   0.585   1.831
11917SOL    HW139545   5.417   0.674   1.795
11917SOL    HW239546   5.441   0.517   1.758
11918SOL     OW39547   5.086   1.144   0.545
11918SOL    HW139548   5.169   1.115   0.497
11918SOL    HW239549   5.037   1.211   0.489
11919SOL     OW39550   4.274   0.196   0.885
11919SOL    HW139551   4.269   0.191   0.985
11919SOL    HW239552   4.276   0.292   0.856
11920SOL     OW39553   4.732   1.456   0.477
11920SOL    HW139554   4.686   1.528   0.425
11920SOL    HW239555   4.728   1.476   0.575
11921SOL     OW39556   4.075   1.801   0.853
11921SOL    HW139557   4.125   1.715   0.859
11921SOL    HW239558   4.140   1.878   0.850
11922SOL     OW39559   5.519   1.066   0.873
11922SOL    HW139560   5.457   1.051   0.797
11922SOL    HW239561   5.467   1.077   0.958
11923SOL     OW39562   4.951   1.550   1.506
11923SOL    HW139563   4.957   1.473   1.570
11923SOL    HW239564   4.899   1.524   1.426
11924SOL     OW39565   5.182   0.735   0.728
11924SOL    HW139566   5.177   0.670   0.803
11924SOL    HW239567   5.262   0.794   0.741
11925SOL     OW39568   4.835   1.776   0.237
11925SOL    HW139569   4.775   1.714   0.287
11925SOL    HW239570   4.866   1.732   0.152
11926SOL     OW39571   3.926   0.285   1.498
11926SOL    HW139572   3.846   0.345   1.485
11926SOL    HW239573   3.916   0.236   1.584
11927SOL     OW39574   5.356   1.377   0.081
11927SOL    HW139575   5.324   1.471   0.071
11927SOL    HW239576   5.280   1.314   0.069
11928SOL     OW39577   4.188   1.743   0.323
11928SOL    HW139578   4.221   1.782   0.409
11928SOL    HW239579   4.264   1.736   0.258
11929SOL     OW39580   3.973   1.785   1.241
11929SOL    HW139581   4.030   1.720   1.291
11929SOL    HW239582   3.957   1.752   1.148
11930SOL     OW39583   4.664   1.698   0.904
11930SOL    HW139584   4.744   1.641   0.925
11930SOL    HW239585   4.615   1.658   0.827
11931SOL     OW39586   4.106   0.700   0.480
11931SOL    HW139587   4.151   0.610   0.477
11931SOL    HW239588   4.012   0.689   0.513
11932SOL     OW39589   5.271   0.222   1.729
11932SOL    HW139590   5.266   0.259   1.821
11932SOL    HW239591   5.199   0.153   1.717
11933SOL     OW39592   4.338   0.122   0.117
11933SOL    HW139593   4.436   0.100   0.124
11933SOL    HW239594   4.307   0.105   0.024
11934SOL     OW39595   4.505   0.264   1.749
11934SOL    HW139596   4.572   0.203   1.792
11934SOL    HW239597   4.432   0.283   1.814
11935SOL     OW39598   4.612   1.514   1.195
11935SOL    HW139599   4.589   1.489   1.101
11935SOL    HW239600   4.673   1.445   1.234
11936SOL     OW39601   5.075   0.590   1.433
11936SOL    HW139602   5.103   0.547   1.518
11936SOL    HW239603   5.100   0.686   1.434
11937SOL     OW39604   4.646   0.503   0.899
11937SOL    HW139605   4.621   0.494   0.803
11937SOL    HW239606   4.694   0.421   0.930
11938SOL     OW39607   4.263   0.064   0.512
11938SOL    HW139608   4.182   0.065   0.570
11938SOL    HW239609   4.266   0.147   0.457
11939SOL     OW39610   5.158   1.188   0.041
11939SOL    HW139611   5.190   1.112   0.098
11939SOL    HW239612   5.066   1.215   0.071
11940SOL     OW39613   4.021   0.035   0.171
11940SOL    HW139614   4.070   0.119   0.150
11940SOL    HW239615   4.083  -0.030   0.216
11941SOL     OW39616   4.659   0.236   0.480
11941SOL    HW139617   4.611   0.277   0.402
11941SOL    HW239618   4.758   0.234   0.461
11942SOL     OW39619   4.800   0.683   1.464
11942SOL    HW139620   4.720   0.622   1.467
11942SOL    HW239621   4.881   0.630   1.440
11943SOL     OW39622   4.951   1.570   0.793
11943SOL    HW139623   4.972   1.644   0.728
11943SOL    HW239624   5.019   1.570   0.866
11944SOL     OW39625   4.995   1.797   0.591
11944SOL    HW139626   5.039   1.861   0.527
11944SOL    HW239627   4.945   1.849   0.661
11945SOL     OW39628   4.756   0.549   0.016
11945SOL    HW139629   4.715   0.631  -0.023
11945SOL    HW239630   4.820   0.575   0.089
11946SOL     OW39631   3.802   0.556   1.386
11946SOL    HW139632   3.894   0.555   1.345
11946SOL    HW239633   3.796   0.630   1.453
11947SOL     OW39634   4.285   0.222   1.147
11947SOL    HW139635   4.323   0.138   1.184
11947SOL    HW239636   4.197   0.241   1.191
11948SOL     OW39637   4.590   0.454   0.642
11948SOL    HW139638   4.558   0.526   0.580
11948SOL    HW239639   4.614   0.373   0.589
11949SOL     OW39640   4.741   0.039   0.753
11949SOL    HW139641   4.669   0.044   0.684
11949SOL    HW239642   4.717  -0.030   0.822
11950SOL     OW39643   5.153   1.173   0.867
11950SOL    HW139644   5.098   1.089   0.860
11950SOL    HW239645   5.179   1.202   0.775
11951SOL     OW39646   5.190   0.590   0.992
11951SOL    HW139647   5.160   0.495   0.999
11951SOL    HW239648   5.263   0.606   1.058
11952SOL     OW39649   5.581   0.833   0.377
11952SOL    HW139650   5.623   0.769   0.441
11952SOL    HW239651   5.543   0.782   0.299
11953SOL     OW39652   4.212   1.385   0.174
11953SOL    HW139653   4.125   1.370   0.221
11953SOL    HW239654   4.195   1.411   0.079
11954SOL     OW39655   5.388   1.280   0.657
11954SOL    HW139656   5.487   1.288   0.671
11954SOL    HW239657   5.343   1.364   0.688
11955SOL     OW39658   5.114   0.575   0.078
11955SOL    HW139659   5.060   0.554   0.159
11955SOL    HW239660   5.205   0.534   0.087
11956SOL     OW39661   4.251   0.256   0.328
11956SOL    HW139662   4.278   0.197   0.253
11956SOL    HW239663   4.251   0.351   0.297
11957SOL     OW39664   4.788   1.347   1.340
11957SOL    HW139665   4.708   1.324   1.395
11957SOL    HW239666   4.871   1.321   1.389
11958SOL     OW39667   5.316   1.629   1.625
11958SOL    HW139668   5.343   1.663   1.535
11958SOL    HW239669   5.395   1.591   1.671
11959SOL     OW39670   4.835   1.195   1.100
11959SOL    HW139671   4.795   1.239   1.181
11959SOL    HW239672   4.794   1.232   1.017
11960SOL     OW39673   5.362   1.099   1.079
11960SOL    HW139674   5.367   1.180   1.138
11960SOL    HW239675   5.276   1.101   1.028
11961SOL     OW39676   4.639   0.089   1.402
11961SOL    HW139677   4.664   0.069   1.307
11961SOL    HW239678   4.711   0.145   1.444
11962SOL     OW39679   4.704   1.116   1.719
11962SOL    HW139680   4.605   1.122   1.729
11962SOL    HW239681   4.727   1.036   1.663
11963SOL     OW39682   4.429   1.050   0.368
11963SOL    HW139683   4.415   1.057   0.467
11963SOL    HW239684   4.513   0.999   0.350
11964SOL     OW39685   4.134   0.813   1.251
11964SOL    HW139686   4.220   0.825   1.301
11964SOL    HW239687   4.092   0.726   1.278
11965SOL     OW39688   4.091   1.100   0.501
11965SOL    HW139689   4.084   1.183   0.445
11965SOL    HW239690   4.095   1.020   0.441
11966SOL     OW39691   4.290   0.537   0.865
11966SOL    HW139692   4.302   0.603   0.791
11966SOL    HW239693   4.336   0.571   0.948
11967SOL     OW39694   4.976   1.348   0.388
11967SOL    HW139695   5.026   1.425   0.428
11967SOL    HW239696   4.881   1.350   0.420
11968SOL     OW39697   4.996   1.445   1.142
11968SOL    HW139698   5.043   1.458   1.229
11968SOL    HW239699   4.930   1.371   1.151
11969SOL     OW39700   5.306   0.639   0.472
11969SOL    HW139701   5.275   0.700   0.545
11969SOL    HW239702   5.356   0.691   0.403
11970SOL     OW39703   4.126   0.751   1.598
11970SOL    HW139704   4.194   0.806   1.551
11970SOL    HW239705   4.166   0.663   1.625
11971SOL     OW39706   5.311   0.779   1.670
11971SOL    HW139707   5.219   0.817   1.665
11971SOL    HW239708   5.371   0.826   1.605
11972SOL     OW39709   4.737   0.105   1.770
11972SOL    HW139710   4.743   0.190   1.718
11972SOL    HW239711   4.769   0.029   1.713
11973SOL     OW39712   4.228   0.050   1.740
11973SOL    HW139713   4.186  -0.007   1.670
11973SOL    HW239714   4.162   0.119   1.772
11974SOL     OW39715   4.297   0.870   1.029
11974SOL    HW139716   4.341   0.959   1.020
11974SOL    HW239717   4.234   0.870   1.106
11975SOL     OW39718   5.084   0.862   1.045
11975SOL    HW139719   5.009   0.862   0.979
11975SOL    HW239720   5.121   0.770   1.054
11976SOL     OW39721   4.933   0.525   0.275
11976SOL    HW139722   4.946   0.441   0.329
11976SOL    HW239723   4.904   0.599   0.335
11977SOL     OW39724   4.031   0.213   1.231
11977SOL    HW139725   4.008   0.250   1.321
11977SOL    HW239726   4.001   0.118   1.225
11978SOL     OW39727   4.456   0.634   1.064
11978SOL    HW139728   4.515   0.608   0.988
11978SOL    HW239729   4.428   0.730   1.053
11979SOL     OW39730   5.452   0.935   1.854
11979SOL    HW139731   5.406   0.928   1.765
11979SOL    HW239732   5.390   0.979   1.920
11980SOL     OW39733   4.031   0.063   0.618
11980SOL    HW139734   4.020   0.157   0.651
11980SOL    HW239735   4.026   0.000   0.695
11981SOL     OW39736   5.346   0.367   0.374
11981SOL    HW139737   5.348   0.291   0.438
11981SOL    HW239738   5.298   0.444   0.414
11982SOL     OW39739   4.747   0.766   0.966
11982SOL    HW139740   4.762   0.787   1.062
11982SOL    HW239741   4.717   0.671   0.957
11983SOL     OW39742   4.704   1.573   1.700
11983SOL    HW139743   4.684   1.617   1.612
11983SOL    HW239744   4.743   1.482   1.684
11984SOL     OW39745   5.583   1.518   1.605
11984SOL    HW139746   5.597   1.545   1.510
11984SOL    HW239747   5.666   1.540   1.658
11985SOL     OW39748   4.074   0.898   1.804
11985SOL    HW139749   4.150   0.942   1.852
11985SOL    HW239750   4.109   0.851   1.722
11986SOL     OW39751   5.264   0.274   0.125
11986SOL    HW139752   5.203   0.199   0.148
11986SOL    HW239753   5.286   0.326   0.208
11987SOL     OW39754   4.792   1.333   0.849
11987SOL    HW139755   4.799   1.249   0.794
11987SOL    HW239756   4.854   1.402   0.813
11988SOL     OW39757   4.043   0.810   0.949
11988SOL    HW139758   4.136   0.846   0.954
11988SOL    HW239759   4.037   0.725   1.001
11989SOL     OW39760   4.063   0.509   1.006
11989SOL    HW139761   4.011   0.426   0.989
11989SOL    HW239762   4.140   0.514   0.942
11990SOL     OW39763   4.862   0.380   1.678
11990SOL    HW139764   4.817   0.443   1.742
11990SOL    HW239765   4.955   0.411   1.661
11991SOL     OW39766   4.884   0.207   1.477
11991SOL    HW139767   4.884   0.271   1.554
11991SOL    HW239768   4.912   0.255   1.394
11992SOL     OW39769   3.732   1.326   0.200
11992SOL    HW139770   3.639   1.347   0.169
11992SOL    HW239771   3.742   1.227   0.213
11993SOL     OW39772   3.812   1.801   0.927
11993SOL    HW139773   3.770   1.715   0.900
11993SOL    HW239774   3.906   1.804   0.893
11994SOL     OW39775   4.726   0.796   1.238
11994SOL    HW139776   4.767   0.764   1.324
11994SOL    HW239777   4.630   0.769   1.235
11995SOL     OW39778   3.764   0.544   1.114
11995SOL    HW139779   3.849   0.511   1.073
11995SOL    HW239780   3.777   0.559   1.212
11996SOL     OW39781   3.913   0.520   1.722
11996SOL    HW139782   3.972   0.480   1.652
11996SOL    HW239783   3.855   0.591   1.681
11997SOL     OW39784   4.539   0.572   0.325
11997SOL    HW139785   4.546   0.483   0.279
11997SOL    HW239786   4.445   0.606   0.317
11998SOL     OW39787   5.381   0.604   1.206
11998SOL    HW139788   5.343   0.535   1.268
11998SOL    HW239789   5.463   0.568   1.162
11999SOL     OW39790   3.976   1.564   1.744
11999SOL    HW139791   3.946   1.621   1.820
11999SOL    HW239792   3.969   1.467   1.770
12000SOL     OW39793   4.395   0.464   1.269
12000SOL    HW139794   4.361   0.375   1.239
12000SOL    HW239795   4.421   0.518   1.189
12001SOL     OW39796   4.654   1.678   1.465
12001SOL    HW139797   4.630   1.660   1.370
12001SOL    HW239798   4.684   1.772   1.475
12002SOL     OW39799   4.197   0.500   0.191
12002SOL    HW139800   4.258   0.580   0.195
12002SOL    HW239801   4.102   0.531   0.198
12003SOL     OW39802   3.883   1.137   1.466
12003SOL    HW139803   3.905   1.076   1.542
12003SOL    HW239804   3.893   1.088   1.380
12004SOL     OW39805   5.071   1.059   1.234
12004SOL    HW139806   5.095   0.996   1.160
12004SOL    HW239807   4.981   1.099   1.216
12005SOL     OW39808   5.026   0.855   0.309
12005SOL    HW139809   4.940   0.824   0.351
12005SOL    HW239810   5.022   0.841   0.210
12006SOL     OW39811   5.483   1.747   1.154
12006SOL    HW139812   5.544   1.777   1.081
12006SOL    HW239813   5.445   1.658   1.132
12007SOL     OW39814   4.976   1.731   1.128
12007SOL    HW139815   5.060   1.736   1.074
12007SOL    HW239816   4.953   1.635   1.146
12008SOL     OW39817   3.807   1.258   1.022
12008SOL    HW139818   3.802   1.257   1.122
12008SOL    HW239819   3.724   1.217   0.984
12009SOL     OW39820   4.412   1.662   1.716
12009SOL    HW139821   4.356   1.743   1.725
12009SOL    HW239822   4.464   1.666   1.630
12010SOL     OW39823   4.627   0.086   0.133
12010SOL    HW139824   4.678   0.087   0.047
12010SOL    HW239825   4.683   0.044   0.204
12011SOL     OW39826   5.450   0.135   0.523
12011SOL    HW139827   5.523   0.118   0.456
12011SOL    HW239828   5.419   0.048   0.561
12012SOL     OW39829   5.112   1.573   0.477
12012SOL    HW139830   5.179   1.585   0.403
12012SOL    HW239831   5.072   1.662   0.500
12013SOL     OW39832   3.854   1.794   1.851
12013SOL    HW139833   3.813   1.720   1.904
12013SOL    HW239834   3.918   1.845   1.909
12014SOL     OW39835   5.004   0.927   0.672
12014SOL    HW139836   5.064   0.846   0.674
12014SOL    HW239837   5.044   0.996   0.612
12015SOL     OW39838   4.554   1.273   1.422
12015SOL    HW139839   4.549   1.306   1.517
12015SOL    HW239840   4.468   1.292   1.376
12016SOL     OW39841   4.396   1.616   0.154
12016SOL    HW139842   4.405   1.626   0.055
12016SOL    HW239843   4.356   1.527   0.175
12017SOL     OW39844   5.374   1.720   1.394
12017SOL    HW139845   5.427   1.730   1.310
12017SOL    HW239846   5.347   1.810   1.428
12018SOL     OW39847   5.565   0.175   0.963
12018SOL    HW139848   5.604   0.090   0.927
12018SOL    HW239849   5.467   0.177   0.944
12019SOL     OW39850   3.987   0.326   0.720
12019SOL    HW139851   3.908   0.377   0.686
12019SOL    HW239852   3.978   0.311   0.818
12020SOL     OW39853   4.918   1.612   0.031
12020SOL    HW139854   4.924   1.519   0.068
12020SOL    HW239855   4.859   1.612  -0.049
12021SOL     OW39856   4.546   1.002   1.372
12021SOL    HW139857   4.586   1.001   1.280
12021SOL    HW239858   4.556   1.094   1.412
12022SOL     OW39859   4.640   0.910   0.291
12022SOL    HW139860   4.703   0.948   0.223
12022SOL    HW239861   4.680   0.827   0.330
12023SOL     OW39862   5.228   1.607   0.044
12023SOL    HW139863   5.136   1.644   0.051
12023SOL    HW239864   5.266   1.627  -0.046
12024SOL     OW39865   4.763   1.098   0.696
12024SOL    HW139866   4.693   1.051   0.750
12024SOL    HW239867   4.822   1.030   0.653
12025SOL     OW39868   5.433   0.385   1.381
12025SOL    HW139869   5.506   0.454   1.385
12025SOL    HW239870   5.461   0.310   1.322
12026SOL     OW39871   3.979   1.348   0.290
12026SOL    HW139872   3.883   1.349   0.263
12026SOL    HW239873   3.991   1.401   0.374
12027SOL     OW39874   3.829   1.013   1.726
12027SOL    HW139875   3.752   0.980   1.780
12027SOL    HW239876   3.914   0.983   1.768
12028SOL     OW39877   4.396   0.203   1.489
12028SOL    HW139878   4.486   0.187   1.449
12028SOL    HW239879   4.404   0.208   1.588
12029SOL     OW39880   3.799   0.345   0.033
12029SOL    HW139881   3.707   0.317   0.004
12029SOL    HW239882   3.830   0.422  -0.023
12030SOL     OW39883   5.164   0.856   1.398
12030SOL    HW139884   5.107   0.908   1.335
12030SOL    HW239885   5.260   0.868   1.374
12031SOL     OW39886   4.907   1.335   0.119
12031SOL    HW139887   4.808   1.324   0.121
12031SOL    HW239888   4.941   1.350   0.212
12032SOL     OW39889   4.337   0.842   1.431
12032SOL    HW139890   4.393   0.923   1.414
12032SOL    HW239891   4.396   0.762   1.434
12033SOL     OW39892   5.217   1.767   0.959
12033SOL    HW139893   5.250   1.831   0.890
12033SOL    HW239894   5.283   1.761   1.034
12034SOL     OW39895   4.440   0.565   1.708
12034SOL    HW139896   4.459   0.630   1.782
12034SOL    HW239897   4.500   0.485   1.717
12035SOL     OW39898   4.114   1.741   1.560
12035SOL    HW139899   4.023   1.782   1.558
12035SOL    HW239900   4.107   1.647   1.592
12036SOL     OW39901   5.398   0.883   1.254
12036SOL    HW139902   5.371   0.794   1.217
12036SOL    HW239903   5.399   0.951   1.181
12037SOL     OW39904   4.318   0.745   0.652
12037SOL    HW139905   4.368   0.830   0.633
12037SOL    HW239906   4.230   0.747   0.604
12038SOL     OW39907   5.501   0.342   1.642
12038SOL    HW139908   5.484   0.373   1.548
12038SOL    HW239909   5.417   0.305   1.680
12039SOL     OW39910   5.454   0.934   1.517
12039SOL    HW139911   5.492   1.025   1.532
12039SOL    HW239912   5.446   0.917   1.418
12040SOL     OW39913   4.583   1.374   0.016
12040SOL    HW139914   4.537   1.389   0.104
12040SOL    HW239915   4.627   1.459  -0.014
12041SOL     OW39916   4.385   1.790   0.953
12041SOL    HW139917   4.339   1.878   0.940
12041SOL    HW239918   4.484   1.802   0.946
12042SOL     OW39919   4.583   0.956   0.861
12042SOL    HW139920   4.637   0.887   0.909
12042SOL    HW239921   4.551   1.025   0.927
12043SOL     OW39922   4.807   0.984   0.087
12043SOL    HW139923   4.784   1.037   0.005
12043SOL    HW239924   4.888   0.928   0.068
12044SOL     OW39925   5.585   1.569   0.851
12044SOL    HW139926   5.514   1.557   0.781
12044SOL    HW239927   5.586   1.490   0.911
12045SOL     OW39928   3.945   1.314   1.844
12045SOL    HW139929   3.880   1.241   1.823
12045SOL    HW239930   3.949   1.328   1.942
12046SOL     OW39931   3.803   1.240   0.653
12046SOL    HW139932   3.802   1.193   0.741
12046SOL    HW239933   3.885   1.212   0.602
12047SOL     OW39934   4.396   1.391   1.624
12047SOL    HW139935   4.318   1.341   1.662
12047SOL    HW239936   4.393   1.486   1.655
12048SOL     OW39937   5.548   0.192   1.227
12048SOL    HW139938   5.544   0.102   1.271
12048SOL    HW239939   5.551   0.181   1.128
12049SOL     OW39940   4.152   0.424   0.520
12049SOL    HW139941   4.182   0.352   0.458
12049SOL    HW239942   4.113   0.384   0.603
12050SOL     OW39943   5.429   1.487   1.104
12050SOL    HW139944   5.336   1.462   1.077
12050SOL    HW239945   5.455   1.437   1.186
12051SOL     OW39946   4.041   0.547   1.280
12051SOL    HW139947   4.079   0.488   1.352
12051SOL    HW239948   4.081   0.521   1.192
12052SOL     OW39949   4.342   1.567   1.284
12052SOL    HW139950   4.337   1.649   1.341
12052SOL    HW239951   4.431   1.564   1.239
12053SOL     OW39952   5.076   0.052   0.168
12053SOL    HW139953   5.111   0.011   0.084
12053SOL    HW239954   4.986   0.014   0.188
12054SOL     OW39955   5.024   0.453   0.691
12054SOL    HW139956   4.965   0.533   0.695
12054SOL    HW239957   5.039   0.418   0.784
12055SOL     OW39958   5.317   0.221   0.882
12055SOL    HW139959   5.233   0.220   0.936
12055SOL    HW239960   5.319   0.304   0.826
12056SOL     OW39961   3.763   1.077   0.300
12056SOL    HW139962   3.862   1.066   0.291
12056SOL    HW239963   3.723   0.991   0.332
12057SOL     OW39964   3.954   0.628   1.975
12057SOL    HW139965   3.861   0.626   2.012
12057SOL    HW239966   3.955   0.589   1.883
12058SOL     OW39967   3.949   0.275   2.858
12058SOL    HW139968   3.984   0.258   2.950
12058SOL    HW239969   3.861   0.230   2.846
12059SOL     OW39970   4.293   1.275   3.027
12059SOL    HW139971   4.200   1.268   2.990
12059SOL    HW239972   4.304   1.364   3.071
12060SOL     OW39973   5.279   1.511   2.565
12060SOL    HW139974   5.222   1.495   2.646
12060SOL    HW239975   5.220   1.521   2.485
12061SOL     OW39976   4.859   0.703   2.579
12061SOL    HW139977   4.916   0.781   2.554
12061SOL    HW239978   4.799   0.729   2.655
12062SOL     OW39979   5.479   0.607   2.093
12062SOL    HW139980   5.467   0.594   1.994
12062SOL    HW239981   5.449   0.526   2.142
12063SOL     OW39982   4.492   1.144   2.885
12063SOL    HW139983   4.414   1.161   2.945
12063SOL    HW239984   4.526   1.231   2.849
12064SOL     OW39985   4.409   1.012   2.527
12064SOL    HW139986   4.478   0.996   2.597
12064SOL    HW239987   4.336   1.069   2.565
12065SOL     OW39988   4.059   1.435   2.923
12065SOL    HW139989   3.981   1.404   2.870
12065SOL    HW239990   4.117   1.493   2.866
12066SOL     OW39991   5.184   1.505   3.201
12066SOL    HW139992   5.208   1.599   3.227
12066SOL    HW239993   5.168   1.451   3.283
12067SOL     OW39994   4.162   0.392   3.361
12067SOL    HW139995   4.244   0.336   3.370
12067SOL    HW239996   4.081   0.334   3.365
12068SOL     OW39997   5.327   0.447   2.599
12068SOL    HW139998   5.253   0.493   2.549
12068SOL    HW239999   5.378   0.515   2.652
12069SOL     OW40000   3.955   1.713   2.345
12069SOL    HW140001   3.989   1.790   2.399
12069SOL    HW240002   3.999   1.713   2.255
12070SOL     OW40003   3.954   1.434   2.400
12070SOL    HW140004   3.928   1.530   2.400
12070SOL    HW240005   3.883   1.380   2.445
12071SOL     OW40006   3.964   1.091   2.748
12071SOL    HW140007   3.978   1.007   2.800
12071SOL    HW240008   3.909   1.155   2.803
12072SOL     OW40009   4.344   1.786   3.301
12072SOL    HW140010   4.252   1.769   3.336
12072SOL    HW240011   4.372   1.878   3.327
12073SOL     OW40012   4.330   0.964   1.985
12073SOL    HW140013   4.337   1.048   1.931
12073SOL    HW240014   4.376   0.977   2.073
12074SOL     OW40015   5.318   0.114   3.342
12074SOL    HW140016   5.300   0.181   3.270
12074SOL    HW240017   5.315   0.160   3.431
12075SOL     OW40018   5.566   1.767   2.221
12075SOL    HW140019   5.620   1.738   2.301
12075SOL    HW240020   5.596   1.857   2.192
12076SOL     OW40021   3.751   1.596   1.979
12076SOL    HW140022   3.732   1.500   2.000
12076SOL    HW240023   3.718   1.654   2.054
12077SOL     OW40024   5.413   0.922   2.474
12077SOL    HW140025   5.508   0.893   2.482
12077SOL    HW240026   5.405   0.987   2.399
12078SOL     OW40027   5.365   1.108   2.294
12078SOL    HW140028   5.451   1.110   2.242
12078SOL    HW240029   5.379   1.155   2.382
12079SOL     OW40030   3.837   0.737   3.459
12079SOL    HW140031   3.925   0.724   3.504
12079SOL    HW240032   3.824   0.834   3.437
12080SOL     OW40033   4.337   1.365   2.588
12080SOL    HW140034   4.288   1.278   2.597
12080SOL    HW240035   4.314   1.408   2.501
12081SOL     OW40036   5.017   1.228   3.285
12081SOL    HW140037   5.054   1.155   3.227
12081SOL    HW240038   5.069   1.233   3.370
12082SOL     OW40039   4.533   0.004   2.364
12082SOL    HW140040   4.573   0.095   2.355
12082SOL    HW240041   4.433   0.012   2.370
12083SOL     OW40042   3.921   0.976   3.126
12083SOL    HW140043   4.010   0.931   3.112
12083SOL    HW240044   3.848   0.911   3.107
12084SOL     OW40045   5.249   0.999   2.052
12084SOL    HW140046   5.186   0.923   2.065
12084SOL    HW240047   5.297   1.017   2.138
12085SOL     OW40048   4.911   1.792   3.478
12085SOL    HW140049   4.935   1.852   3.402
12085SOL    HW240050   4.918   1.697   3.448
12086SOL     OW40051   5.190   1.417   2.815
12086SOL    HW140052   5.131   1.423   2.895
12086SOL    HW240053   5.175   1.329   2.769
12087SOL     OW40054   5.391   1.714   2.434
12087SOL    HW140055   5.350   1.691   2.346
12087SOL    HW240056   5.373   1.640   2.499
12088SOL     OW40057   4.322   0.729   2.132
12088SOL    HW140058   4.346   0.798   2.064
12088SOL    HW240059   4.244   0.762   2.186
12089SOL     OW40060   5.005   0.345   2.806
12089SOL    HW140061   4.919   0.295   2.793
12089SOL    HW240062   5.067   0.291   2.862
12090SOL     OW40063   5.300   1.662   2.169
12090SOL    HW140064   5.389   1.708   2.172
12090SOL    HW240065   5.279   1.638   2.074
12091SOL     OW40066   4.531   0.605   3.327
12091SOL    HW140067   4.484   0.602   3.416
12091SOL    HW240068   4.480   0.550   3.261
12092SOL     OW40069   5.118   0.469   3.536
12092SOL    HW140070   5.098   0.512   3.624
12092SOL    HW240071   5.196   0.407   3.545
12093SOL     OW40072   4.715   0.410   3.104
12093SOL    HW140073   4.638   0.444   3.158
12093SOL    HW240074   4.681   0.359   3.025
12094SOL     OW40075   4.765   0.701   2.291
12094SOL    HW140076   4.791   0.697   2.387
12094SOL    HW240077   4.680   0.650   2.277
12095SOL     OW40078   3.854   1.821   3.433
12095SOL    HW140079   3.844   1.806   3.532
12095SOL    HW240080   3.768   1.857   3.397
12096SOL     OW40081   4.589   0.348   2.057
12096SOL    HW140082   4.648   0.411   2.008
12096SOL    HW240083   4.608   0.254   2.028
12097SOL     OW40084   5.443   0.585   3.693
12097SOL    HW140085   5.417   0.674   3.657
12097SOL    HW240086   5.441   0.517   3.620
12098SOL     OW40087   5.086   1.144   2.407
12098SOL    HW140088   5.169   1.115   2.359
12098SOL    HW240089   5.037   1.211   2.351
12099SOL     OW40090   4.732   1.456   2.339
12099SOL    HW140091   4.686   1.528   2.287
12099SOL    HW240092   4.728   1.476   2.437
12100SOL     OW40093   5.519   1.066   2.735
12100SOL    HW140094   5.457   1.051   2.659
12100SOL    HW240095   5.467   1.077   2.820
12101SOL     OW40096   4.951   1.550   3.368
12101SOL    HW140097   4.957   1.473   3.432
12101SOL    HW240098   4.899   1.524   3.288
12102SOL     OW40099   4.045   0.943   2.104
12102SOL    HW140100   4.127   0.982   2.062
12102SOL    HW240101   4.018   0.861   2.055
12103SOL     OW40102   5.182   0.735   2.590
12103SOL    HW140103   5.177   0.670   2.665
12103SOL    HW240104   5.262   0.794   2.603
12104SOL     OW40105   4.185   1.266   3.589
12104SOL    HW140106   4.135   1.267   3.503
12104SOL    HW240107   4.122   1.248   3.665
12105SOL     OW40108   4.835   1.776   2.099
12105SOL    HW140109   4.775   1.714   2.149
12105SOL    HW240110   4.866   1.732   2.014
12106SOL     OW40111   3.926   0.285   3.360
12106SOL    HW140112   3.846   0.345   3.347
12106SOL    HW240113   3.916   0.236   3.446
12107SOL     OW40114   4.188   1.743   2.185
12107SOL    HW140115   4.221   1.782   2.271
12107SOL    HW240116   4.264   1.736   2.120
12108SOL     OW40117   5.124   0.107   2.288
12108SOL    HW140118   5.100   0.070   2.198
12108SOL    HW240119   5.223   0.123   2.292
12109SOL     OW40120   3.973   1.785   3.103
12109SOL    HW140121   4.030   1.720   3.153
12109SOL    HW240122   3.957   1.752   3.010
12110SOL     OW40123   4.106   0.700   2.342
12110SOL    HW140124   4.151   0.610   2.339
12110SOL    HW240125   4.012   0.689   2.375
12111SOL     OW40126   5.271   0.222   3.591
12111SOL    HW140127   5.266   0.259   3.683
12111SOL    HW240128   5.199   0.153   3.579
12112SOL     OW40129   4.338   0.122   1.979
12112SOL    HW140130   4.436   0.100   1.986
12112SOL    HW240131   4.307   0.105   1.886
12113SOL     OW40132   4.505   0.264   3.611
12113SOL    HW140133   4.572   0.203   3.654
12113SOL    HW240134   4.432   0.283   3.676
12114SOL     OW40135   4.612   1.514   3.057
12114SOL    HW140136   4.589   1.489   2.963
12114SOL    HW240137   4.673   1.445   3.096
12115SOL     OW40138   5.075   0.590   3.295
12115SOL    HW140139   5.103   0.547   3.380
12115SOL    HW240140   5.100   0.686   3.296
12116SOL     OW40141   4.527   1.402   2.786
12116SOL    HW140142   4.617   1.416   2.744
12116SOL    HW240143   4.456   1.404   2.715
12117SOL     OW40144   4.021   0.035   2.033
12117SOL    HW140145   4.070   0.119   2.012
12117SOL    HW240146   4.083  -0.030   2.078
12118SOL     OW40147   4.800   0.683   3.326
12118SOL    HW140148   4.720   0.622   3.329
12118SOL    HW240149   4.881   0.630   3.302
12119SOL     OW40150   4.951   1.570   2.655
12119SOL    HW140151   4.972   1.644   2.590
12119SOL    HW240152   5.019   1.570   2.728
12120SOL     OW40153   4.183   1.152   2.603
12120SOL    HW140154   4.112   1.125   2.668
12120SOL    HW240155   4.157   1.124   2.510
12121SOL     OW40156   4.995   1.797   2.453
12121SOL    HW140157   5.039   1.861   2.389
12121SOL    HW240158   4.945   1.849   2.523
12122SOL     OW40159   4.756   0.549   1.878
12122SOL    HW140160   4.715   0.631   1.839
12122SOL    HW240161   4.820   0.575   1.951
12123SOL     OW40162   3.802   0.556   3.248
12123SOL    HW140163   3.894   0.555   3.207
12123SOL    HW240164   3.796   0.630   3.315
12124SOL     OW40165   4.285   0.222   3.009
12124SOL    HW140166   4.323   0.138   3.046
12124SOL    HW240167   4.197   0.241   3.053
12125SOL     OW40168   4.741   0.039   2.615
12125SOL    HW140169   4.669   0.044   2.546
12125SOL    HW240170   4.717  -0.030   2.684
12126SOL     OW40171   5.153   1.173   2.729
12126SOL    HW140172   5.098   1.089   2.722
12126SOL    HW240173   5.179   1.202   2.637
12127SOL     OW40174   5.190   0.590   2.854
12127SOL    HW140175   5.160   0.495   2.861
12127SOL    HW240176   5.263   0.606   2.920
12128SOL     OW40177   5.581   0.833   2.239
12128SOL    HW140178   5.623   0.769   2.303
12128SOL    HW240179   5.543   0.782   2.161
12129SOL     OW40180   4.212   1.385   2.036
12129SOL    HW140181   4.125   1.370   2.083
12129SOL    HW240182   4.195   1.411   1.941
12130SOL     OW40183   5.388   1.280   2.519
12130SOL    HW140184   5.487   1.288   2.533
12130SOL    HW240185   5.343   1.364   2.550
12131SOL     OW40186   5.114   0.575   1.940
12131SOL    HW140187   5.060   0.554   2.021
12131SOL    HW240188   5.205   0.534   1.949
12132SOL     OW40189   4.251   0.256   2.190
12132SOL    HW140190   4.278   0.197   2.115
12132SOL    HW240191   4.251   0.351   2.159
12133SOL     OW40192   5.478   1.223   3.450
12133SOL    HW140193   5.569   1.184   3.437
12133SOL    HW240194   5.486   1.319   3.474
12134SOL     OW40195   4.788   1.347   3.202
12134SOL    HW140196   4.708   1.324   3.257
12134SOL    HW240197   4.871   1.321   3.251
12135SOL     OW40198   5.316   1.629   3.487
12135SOL    HW140199   5.343   1.663   3.397
12135SOL    HW240200   5.395   1.591   3.533
12136SOL     OW40201   4.835   1.195   2.962
12136SOL    HW140202   4.795   1.239   3.043
12136SOL    HW240203   4.794   1.232   2.879
12137SOL     OW40204   5.362   1.099   2.941
12137SOL    HW140205   5.367   1.180   3.000
12137SOL    HW240206   5.276   1.101   2.890
12138SOL     OW40207   4.639   0.089   3.264
12138SOL    HW140208   4.664   0.069   3.169
12138SOL    HW240209   4.711   0.145   3.306
12139SOL     OW40210   4.429   1.050   2.230
12139SOL    HW140211   4.415   1.057   2.329
12139SOL    HW240212   4.513   0.999   2.212
12140SOL     OW40213   4.134   0.813   3.113
12140SOL    HW140214   4.220   0.825   3.163
12140SOL    HW240215   4.092   0.726   3.140
12141SOL     OW40216   4.998   0.386   3.124
12141SOL    HW140217   5.019   0.460   3.188
12141SOL    HW240218   4.909   0.403   3.081
12142SOL     OW40219   3.788   1.564   3.193
12142SOL    HW140220   3.742   1.646   3.159
12142SOL    HW240221   3.886   1.583   3.202
12143SOL     OW40222   4.091   1.100   2.363
12143SOL    HW140223   4.084   1.183   2.307
12143SOL    HW240224   4.095   1.020   2.303
12144SOL     OW40225   4.976   1.348   2.250
12144SOL    HW140226   5.026   1.425   2.290
12144SOL    HW240227   4.881   1.350   2.282
12145SOL     OW40228   4.996   1.445   3.004
12145SOL    HW140229   5.043   1.458   3.091
12145SOL    HW240230   4.930   1.371   3.013
12146SOL     OW40231   5.306   0.639   2.334
12146SOL    HW140232   5.275   0.700   2.407
12146SOL    HW240233   5.356   0.691   2.265
12147SOL     OW40234   4.078   1.510   3.191
12147SOL    HW140235   4.057   1.466   3.104
12147SOL    HW240236   4.175   1.536   3.194
12148SOL     OW40237   5.311   0.779   3.532
12148SOL    HW140238   5.219   0.817   3.527
12148SOL    HW240239   5.371   0.826   3.467
12149SOL     OW40240   4.737   0.105   3.632
12149SOL    HW140241   4.743   0.190   3.580
12149SOL    HW240242   4.769   0.029   3.575
12150SOL     OW40243   4.228   0.050   3.602
12150SOL    HW140244   4.186  -0.007   3.532
12150SOL    HW240245   4.162   0.119   3.634
12151SOL     OW40246   4.297   0.870   2.891
12151SOL    HW140247   4.341   0.959   2.882
12151SOL    HW240248   4.234   0.870   2.968
12152SOL     OW40249   5.084   0.862   2.907
12152SOL    HW140250   5.009   0.862   2.841
12152SOL    HW240251   5.121   0.770   2.916
12153SOL     OW40252   4.933   0.525   2.137
12153SOL    HW140253   4.946   0.441   2.191
12153SOL    HW240254   4.904   0.599   2.197
12154SOL     OW40255   4.031   0.213   3.093
12154SOL    HW140256   4.008   0.250   3.183
12154SOL    HW240257   4.001   0.118   3.087
12155SOL     OW40258   3.761   1.310   3.144
12155SOL    HW140259   3.814   1.261   3.212
12155SOL    HW240260   3.783   1.408   3.149
12156SOL     OW40261   4.456   0.634   2.926
12156SOL    HW140262   4.515   0.608   2.850
12156SOL    HW240263   4.428   0.730   2.915
12157SOL     OW40264   5.452   0.935   3.716
12157SOL    HW140265   5.406   0.928   3.627
12157SOL    HW240266   5.390   0.979   3.782
12158SOL     OW40267   4.031   0.063   2.480
12158SOL    HW140268   4.020   0.157   2.513
12158SOL    HW240269   4.026   0.000   2.557
12159SOL     OW40270   5.346   0.367   2.236
12159SOL    HW140271   5.348   0.291   2.300
12159SOL    HW240272   5.298   0.444   2.276
12160SOL     OW40273   4.747   0.766   2.828
12160SOL    HW140274   4.762   0.787   2.924
12160SOL    HW240275   4.717   0.671   2.819
12161SOL     OW40276   4.704   1.573   3.562
12161SOL    HW140277   4.684   1.617   3.474
12161SOL    HW240278   4.743   1.482   3.546
12162SOL     OW40279   5.583   1.518   3.467
12162SOL    HW140280   5.597   1.545   3.372
12162SOL    HW240281   5.666   1.540   3.520
12163SOL     OW40282   5.264   0.274   1.987
12163SOL    HW140283   5.203   0.199   2.010
12163SOL    HW240284   5.286   0.326   2.070
12164SOL     OW40285   5.027   0.838   1.904
12164SOL    HW140286   5.061   0.745   1.919
12164SOL    HW240287   5.045   0.865   1.809
12165SOL     OW40288   4.792   1.333   2.711
12165SOL    HW140289   4.799   1.249   2.656
12165SOL    HW240290   4.854   1.402   2.675
12166SOL     OW40291   4.862   0.380   3.540
12166SOL    HW140292   4.817   0.443   3.604
12166SOL    HW240293   4.955   0.411   3.523
12167SOL     OW40294   4.884   0.207   3.339
12167SOL    HW140295   4.884   0.271   3.416
12167SOL    HW240296   4.912   0.255   3.256
12168SOL     OW40297   4.726   0.796   3.100
12168SOL    HW140298   4.767   0.764   3.186
12168SOL    HW240299   4.630   0.769   3.097
12169SOL     OW40300   3.764   0.544   2.976
12169SOL    HW140301   3.849   0.511   2.935
12169SOL    HW240302   3.777   0.559   3.074
12170SOL     OW40303   3.913   0.520   3.584
12170SOL    HW140304   3.972   0.480   3.514
12170SOL    HW240305   3.855   0.591   3.543
12171SOL     OW40306   5.093   0.950   3.522
12171SOL    HW140307   5.132   1.039   3.542
12171SOL    HW240308   5.103   0.930   3.425
12172SOL     OW40309   4.539   0.572   2.187
12172SOL    HW140310   4.546   0.483   2.141
12172SOL    HW240311   4.445   0.606   2.179
12173SOL     OW40312   5.381   0.604   3.068
12173SOL    HW140313   5.343   0.535   3.130
12173SOL    HW240314   5.463   0.568   3.024
12174SOL     OW40315   3.976   1.564   3.606
12174SOL    HW140316   3.946   1.621   3.682
12174SOL    HW240317   3.969   1.467   3.632
12175SOL     OW40318   4.395   0.464   3.131
12175SOL    HW140319   4.361   0.375   3.101
12175SOL    HW240320   4.421   0.518   3.051
12176SOL     OW40321   4.654   1.678   3.327
12176SOL    HW140322   4.630   1.660   3.232
12176SOL    HW240323   4.684   1.772   3.337
12177SOL     OW40324   4.197   0.500   2.053
12177SOL    HW140325   4.258   0.580   2.057
12177SOL    HW240326   4.102   0.531   2.060
12178SOL     OW40327   3.883   1.137   3.328
12178SOL    HW140328   3.905   1.076   3.404
12178SOL    HW240329   3.893   1.088   3.242
12179SOL     OW40330   5.071   1.059   3.096
12179SOL    HW140331   5.095   0.996   3.022
12179SOL    HW240332   4.981   1.099   3.078
12180SOL     OW40333   5.026   0.855   2.171
12180SOL    HW140334   4.940   0.824   2.213
12180SOL    HW240335   5.022   0.841   2.072
12181SOL     OW40336   5.483   1.747   3.016
12181SOL    HW140337   5.544   1.777   2.943
12181SOL    HW240338   5.445   1.658   2.994
12182SOL     OW40339   4.976   1.731   2.990
12182SOL    HW140340   5.060   1.736   2.936
12182SOL    HW240341   4.953   1.635   3.008
12183SOL     OW40342   3.807   1.258   2.884
12183SOL    HW140343   3.802   1.257   2.984
12183SOL    HW240344   3.724   1.217   2.846
12184SOL     OW40345   4.412   1.662   3.578
12184SOL    HW140346   4.356   1.743   3.587
12184SOL    HW240347   4.464   1.666   3.492
12185SOL     OW40348   5.450   0.135   2.385
12185SOL    HW140349   5.523   0.118   2.318
12185SOL    HW240350   5.419   0.048   2.423
12186SOL     OW40351   5.112   1.573   2.339
12186SOL    HW140352   5.179   1.585   2.265
12186SOL    HW240353   5.072   1.662   2.362
12187SOL     OW40354   3.854   1.794   3.713
12187SOL    HW140355   3.813   1.720   3.766
12187SOL    HW240356   3.918   1.845   3.771
12188SOL     OW40357   5.004   0.927   2.534
12188SOL    HW140358   5.064   0.846   2.536
12188SOL    HW240359   5.044   0.996   2.474
12189SOL     OW40360   4.554   1.273   3.284
12189SOL    HW140361   4.549   1.306   3.379
12189SOL    HW240362   4.468   1.292   3.238
12190SOL     OW40363   4.396   1.616   2.016
12190SOL    HW140364   4.405   1.626   1.917
12190SOL    HW240365   4.356   1.527   2.037
12191SOL     OW40366   5.374   1.720   3.256
12191SOL    HW140367   5.427   1.730   3.172
12191SOL    HW240368   5.347   1.810   3.290
12192SOL     OW40369   5.565   0.175   2.825
12192SOL    HW140370   5.604   0.090   2.789
12192SOL    HW240371   5.467   0.177   2.806
12193SOL     OW40372   3.987   0.326   2.582
12193SOL    HW140373   3.908   0.377   2.548
12193SOL    HW240374   3.978   0.311   2.680
12194SOL     OW40375   4.918   1.612   1.893
12194SOL    HW140376   4.924   1.519   1.930
12194SOL    HW240377   4.859   1.612   1.813
12195SOL     OW40378   4.546   1.002   3.234
12195SOL    HW140379   4.586   1.001   3.142
12195SOL    HW240380   4.556   1.094   3.274
12196SOL     OW40381   4.640   0.910   2.153
12196SOL    HW140382   4.703   0.948   2.085
12196SOL    HW240383   4.680   0.827   2.192
12197SOL     OW40384   5.228   1.607   1.906
12197SOL    HW140385   5.136   1.644   1.913
12197SOL    HW240386   5.266   1.627   1.816
12198SOL     OW40387   4.096   1.288   3.352
12198SOL    HW140388   4.083   1.381   3.318
12198SOL    HW240389   4.012   1.236   3.339
12199SOL     OW40390   5.338   1.292   3.151
12199SOL    HW140391   5.398   1.295   3.231
12199SOL    HW240392   5.263   1.356   3.164
12200SOL     OW40393   4.763   1.098   2.558
12200SOL    HW140394   4.693   1.051   2.612
12200SOL    HW240395   4.822   1.030   2.515
12201SOL     OW40396   4.738   0.236   2.833
12201SOL    HW140397   4.730   0.200   2.740
12201SOL    HW240398   4.736   0.160   2.898
12202SOL     OW40399   4.314   1.487   2.353
12202SOL    HW140400   4.356   1.429   2.283
12202SOL    HW240401   4.270   1.566   2.309
12203SOL     OW40402   5.433   0.385   3.243
12203SOL    HW140403   5.506   0.454   3.247
12203SOL    HW240404   5.461   0.310   3.184
12204SOL     OW40405   3.979   1.348   2.152
12204SOL    HW140406   3.883   1.349   2.125
12204SOL    HW240407   3.991   1.401   2.236
12205SOL     OW40408   3.829   1.013   3.588
12205SOL    HW140409   3.752   0.980   3.642
12205SOL    HW240410   3.914   0.983   3.630
12206SOL     OW40411   4.396   0.203   3.351
12206SOL    HW140412   4.486   0.187   3.311
12206SOL    HW240413   4.404   0.208   3.450
12207SOL     OW40414   3.799   0.345   1.895
12207SOL    HW140415   3.707   0.317   1.866
12207SOL    HW240416   3.830   0.422   1.839
12208SOL     OW40417   5.164   0.856   3.260
12208SOL    HW140418   5.107   0.908   3.197
12208SOL    HW240419   5.260   0.868   3.236
12209SOL     OW40420   3.796   0.166   2.180
12209SOL    HW140421   3.779   0.249   2.126
12209SOL    HW240422   3.886   0.129   2.158
12210SOL     OW40423   4.907   1.335   1.981
12210SOL    HW140424   4.808   1.324   1.983
12210SOL    HW240425   4.941   1.350   2.074
12211SOL     OW40426   5.217   1.767   2.821
12211SOL    HW140427   5.250   1.831   2.752
12211SOL    HW240428   5.283   1.761   2.896
12212SOL     OW40429   4.440   0.565   3.570
12212SOL    HW140430   4.459   0.630   3.644
12212SOL    HW240431   4.500   0.485   3.579
12213SOL     OW40432   5.174   1.220   3.495
12213SOL    HW140433   5.165   1.210   3.594
12213SOL    HW240434   5.270   1.213   3.469
12214SOL     OW40435   4.114   1.741   3.422
12214SOL    HW140436   4.023   1.782   3.420
12214SOL    HW240437   4.107   1.647   3.454
12215SOL     OW40438   5.398   0.883   3.116
12215SOL    HW140439   5.371   0.794   3.079
12215SOL    HW240440   5.399   0.951   3.043
12216SOL     OW40441   4.949   0.325   2.311
12216SOL    HW140442   5.014   0.251   2.300
12216SOL    HW240443   4.969   0.375   2.395
12217SOL     OW40444   4.318   0.745   2.514
12217SOL    HW140445   4.368   0.830   2.495
12217SOL    HW240446   4.230   0.747   2.466
12218SOL     OW40447   5.501   0.342   3.504
12218SOL    HW140448   5.484   0.373   3.410
12218SOL    HW240449   5.417   0.305   3.542
12219SOL     OW40450   5.454   0.934   3.379
12219SOL    HW140451   5.492   1.025   3.394
12219SOL    HW240452   5.446   0.917   3.280
12220SOL     OW40453   4.583   1.374   1.878
12220SOL    HW140454   4.537   1.389   1.966
12220SOL    HW240455   4.627   1.459   1.848
12221SOL     OW40456   4.583   0.956   2.723
12221SOL    HW140457   4.637   0.887   2.771
12221SOL    HW240458   4.551   1.025   2.789
12222SOL     OW40459   4.807   0.984   1.949
12222SOL    HW140460   4.784   1.037   1.867
12222SOL    HW240461   4.888   0.928   1.930
12223SOL     OW40462   5.585   1.569   2.713
12223SOL    HW140463   5.514   1.557   2.643
12223SOL    HW240464   5.586   1.490   2.773
12224SOL     OW40465   3.945   1.314   3.706
12224SOL    HW140466   3.880   1.241   3.685
12224SOL    HW240467   3.949   1.328   3.804
12225SOL     OW40468   3.803   1.240   2.515
12225SOL    HW140469   3.802   1.193   2.603
12225SOL    HW240470   3.885   1.212   2.464
12226SOL     OW40471   4.396   1.391   3.486
12226SOL    HW140472   4.318   1.341   3.524
12226SOL    HW240473   4.393   1.486   3.517
12227SOL     OW40474   5.548   0.192   3.089
12227SOL    HW140475   5.544   0.102   3.133
12227SOL    HW240476   5.551   0.181   2.990
12228SOL     OW40477   4.152   0.424   2.382
12228SOL    HW140478   4.182   0.352   2.320
12228SOL    HW240479   4.113   0.384   2.465
12229SOL     OW40480   5.429   1.487   2.966
12229SOL    HW140481   5.336   1.462   2.939
12229SOL    HW240482   5.455   1.437   3.048
12230SOL     OW40483   4.041   0.547   3.142
12230SOL    HW140484   4.079   0.488   3.214
12230SOL    HW240485   4.081   0.521   3.054
12231SOL     OW40486   4.536   1.586   2.549
12231SOL    HW140487   4.568   1.596   2.455
12231SOL    HW240488   4.457   1.524   2.551
12232SOL     OW40489   5.148   0.214   2.974
12232SOL    HW140490   5.200   0.149   3.029
12232SOL    HW240491   5.099   0.277   3.035
12233SOL     OW40492   4.725   0.034   3.016
12233SOL    HW140493   4.662  -0.038   2.985
12233SOL    HW240494   4.818  -0.002   3.016
12234SOL     OW40495   4.494   1.330   2.163
12234SOL    HW140496   4.448   1.243   2.180
12234SOL    HW240497   4.585   1.327   2.204
12235SOL     OW40498   4.342   1.567   3.146
12235SOL    HW140499   4.337   1.649   3.203
12235SOL    HW240500   4.431   1.564   3.101
12236SOL     OW40501   5.076   0.052   2.030
12236SOL    HW140502   5.111   0.011   1.946
12236SOL    HW240503   4.986   0.014   2.050
12237SOL     OW40504   5.024   0.453   2.553
12237SOL    HW140505   4.965   0.533   2.557
12237SOL    HW240506   5.039   0.418   2.646
12238SOL     OW40507   5.317   0.221   2.744
12238SOL    HW140508   5.233   0.220   2.798
12238SOL    HW240509   5.319   0.304   2.688
12239SOL     OW40510   3.763   1.077   2.162
12239SOL    HW140511   3.862   1.066   2.153
12239SOL    HW240512   3.723   0.991   2.194
12240SOL     OW40513   4.599   1.646   2.199
12240SOL    HW140514   4.522   1.611   2.145
12240SOL    HW240515   4.567   1.717   2.261
12241SOL     OW40516   3.949   0.275   4.720
12241SOL    HW140517   3.984   0.258   4.812
12241SOL    HW240518   3.861   0.230   4.708
12242SOL     OW40519   3.743   0.368   4.371
12242SOL    HW140520   3.661   0.411   4.410
12242SOL    HW240521   3.715   0.295   4.308
12243SOL     OW40522   4.293   1.275   4.889
12243SOL    HW140523   4.200   1.268   4.852
12243SOL    HW240524   4.304   1.364   4.933
12244SOL     OW40525   5.279   1.511   4.427
12244SOL    HW140526   5.222   1.495   4.508
12244SOL    HW240527   5.220   1.521   4.347
12245SOL     OW40528   4.859   0.703   4.441
12245SOL    HW140529   4.916   0.781   4.416
12245SOL    HW240530   4.799   0.729   4.517
12246SOL     OW40531   5.479   0.607   3.955
12246SOL    HW140532   5.467   0.594   3.856
12246SOL    HW240533   5.449   0.526   4.004
12247SOL     OW40534   4.492   1.144   4.747
12247SOL    HW140535   4.414   1.161   4.807
12247SOL    HW240536   4.526   1.231   4.711
12248SOL     OW40537   4.574   0.798   5.547
12248SOL    HW140538   4.570   0.874   5.612
12248SOL    HW240539   4.596   0.834   5.456
12249SOL     OW40540   4.409   1.012   4.389
12249SOL    HW140541   4.478   0.996   4.459
12249SOL    HW240542   4.336   1.069   4.427
12250SOL     OW40543   4.410   1.161   5.527
12250SOL    HW140544   4.470   1.240   5.541
12250SOL    HW240545   4.324   1.192   5.486
12251SOL     OW40546   4.059   1.435   4.785
12251SOL    HW140547   3.981   1.404   4.732
12251SOL    HW240548   4.117   1.493   4.728
12252SOL     OW40549   5.184   1.505   5.063
12252SOL    HW140550   5.208   1.599   5.089
12252SOL    HW240551   5.168   1.451   5.145
12253SOL     OW40552   4.162   0.392   5.223
12253SOL    HW140553   4.244   0.336   5.232
12253SOL    HW240554   4.081   0.334   5.227
12254SOL     OW40555   5.327   0.447   4.461
12254SOL    HW140556   5.253   0.493   4.411
12254SOL    HW240557   5.378   0.515   4.514
12255SOL     OW40558   3.955   1.713   4.207
12255SOL    HW140559   3.989   1.790   4.261
12255SOL    HW240560   3.999   1.713   4.117
12256SOL     OW40561   4.851   1.341   5.414
12256SOL    HW140562   4.898   1.341   5.502
12256SOL    HW240563   4.803   1.254   5.403
12257SOL     OW40564   3.954   1.434   4.262
12257SOL    HW140565   3.928   1.530   4.262
12257SOL    HW240566   3.883   1.380   4.307
12258SOL     OW40567   3.964   1.091   4.610
12258SOL    HW140568   3.978   1.007   4.662
12258SOL    HW240569   3.909   1.155   4.665
12259SOL     OW40570   4.330   0.964   3.847
12259SOL    HW140571   4.337   1.048   3.793
12259SOL    HW240572   4.376   0.977   3.935
12260SOL     OW40573   3.846   0.643   4.287
12260SOL    HW140574   3.801   0.555   4.304
12260SOL    HW240575   3.845   0.697   4.371
12261SOL     OW40576   5.566   1.767   4.083
12261SOL    HW140577   5.620   1.738   4.163
12261SOL    HW240578   5.596   1.857   4.054
12262SOL     OW40579   3.751   1.596   3.841
12262SOL    HW140580   3.732   1.500   3.862
12262SOL    HW240581   3.718   1.654   3.916
12263SOL     OW40582   5.413   0.922   4.336
12263SOL    HW140583   5.508   0.893   4.344
12263SOL    HW240584   5.405   0.987   4.261
12264SOL     OW40585   5.365   1.108   4.156
12264SOL    HW140586   5.451   1.110   4.104
12264SOL    HW240587   5.379   1.155   4.244
12265SOL     OW40588   3.837   0.737   5.321
12265SOL    HW140589   3.925   0.724   5.366
12265SOL    HW240590   3.824   0.834   5.299
12266SOL     OW40591   4.337   1.365   4.450
12266SOL    HW140592   4.288   1.278   4.459
12266SOL    HW240593   4.314   1.408   4.363
12267SOL     OW40594   5.017   1.228   5.147
12267SOL    HW140595   5.054   1.155   5.089
12267SOL    HW240596   5.069   1.233   5.232
12268SOL     OW40597   4.533   0.004   4.226
12268SOL    HW140598   4.573   0.095   4.217
12268SOL    HW240599   4.433   0.012   4.232
12269SOL     OW40600   3.921   0.976   4.988
12269SOL    HW140601   4.010   0.931   4.974
12269SOL    HW240602   3.848   0.911   4.969
12270SOL     OW40603   5.249   0.999   3.914
12270SOL    HW140604   5.186   0.923   3.927
12270SOL    HW240605   5.297   1.017   4.000
12271SOL     OW40606   4.911   1.792   5.340
12271SOL    HW140607   4.935   1.852   5.264
12271SOL    HW240608   4.918   1.697   5.310
12272SOL     OW40609   4.041   0.251   5.525
12272SOL    HW140610   4.112   0.322   5.531
12272SOL    HW240611   3.953   0.290   5.553
12273SOL     OW40612   5.190   1.417   4.677
12273SOL    HW140613   5.131   1.423   4.757
12273SOL    HW240614   5.175   1.329   4.631
12274SOL     OW40615   5.391   1.714   4.296
12274SOL    HW140616   5.350   1.691   4.208
12274SOL    HW240617   5.373   1.640   4.361
12275SOL     OW40618   5.005   0.345   4.668
12275SOL    HW140619   4.919   0.295   4.655
12275SOL    HW240620   5.067   0.291   4.724
12276SOL     OW40621   5.300   1.662   4.031
12276SOL    HW140622   5.389   1.708   4.034
12276SOL    HW240623   5.279   1.638   3.936
12277SOL     OW40624   4.531   0.605   5.189
12277SOL    HW140625   4.484   0.602   5.278
12277SOL    HW240626   4.480   0.550   5.123
12278SOL     OW40627   4.697   0.890   5.296
12278SOL    HW140628   4.743   0.806   5.267
12278SOL    HW240629   4.641   0.924   5.221
12279SOL     OW40630   4.715   0.410   4.966
12279SOL    HW140631   4.638   0.444   5.020
12279SOL    HW240632   4.681   0.359   4.887
12280SOL     OW40633   4.765   0.701   4.153
12280SOL    HW140634   4.791   0.697   4.249
12280SOL    HW240635   4.680   0.650   4.139
12281SOL     OW40636   3.800   0.811   4.513
12281SOL    HW140637   3.899   0.799   4.522
12281SOL    HW240638   3.776   0.906   4.534
12282SOL     OW40639   4.589   0.348   3.919
12282SOL    HW140640   4.648   0.411   3.870
12282SOL    HW240641   4.608   0.254   3.890
12283SOL     OW40642   5.443   0.585   5.555
12283SOL    HW140643   5.417   0.674   5.519
12283SOL    HW240644   5.441   0.517   5.482
12284SOL     OW40645   5.086   1.144   4.269
12284SOL    HW140646   5.169   1.115   4.221
12284SOL    HW240647   5.037   1.211   4.213
12285SOL     OW40648   4.274   0.196   4.609
12285SOL    HW140649   4.269   0.191   4.709
12285SOL    HW240650   4.276   0.292   4.580
12286SOL     OW40651   4.732   1.456   4.201
12286SOL    HW140652   4.686   1.528   4.149
12286SOL    HW240653   4.728   1.476   4.299
12287SOL     OW40654   4.075   1.801   4.577
12287SOL    HW140655   4.125   1.715   4.583
12287SOL    HW240656   4.140   1.878   4.574
12288SOL     OW40657   5.519   1.066   4.597
12288SOL    HW140658   5.457   1.051   4.521
12288SOL    HW240659   5.467   1.077   4.682
12289SOL     OW40660   4.951   1.550   5.230
12289SOL    HW140661   4.957   1.473   5.294
12289SOL    HW240662   4.899   1.524   5.150
12290SOL     OW40663   5.182   0.735   4.452
12290SOL    HW140664   5.177   0.670   4.527
12290SOL    HW240665   5.262   0.794   4.465
12291SOL     OW40666   4.185   1.266   5.451
12291SOL    HW140667   4.135   1.267   5.365
12291SOL    HW240668   4.122   1.248   5.527
12292SOL     OW40669   4.835   1.776   3.961
12292SOL    HW140670   4.775   1.714   4.011
12292SOL    HW240671   4.866   1.732   3.876
12293SOL     OW40672   3.926   0.285   5.222
12293SOL    HW140673   3.846   0.345   5.209
12293SOL    HW240674   3.916   0.236   5.308
12294SOL     OW40675   5.356   1.377   3.805
12294SOL    HW140676   5.324   1.471   3.795
12294SOL    HW240677   5.280   1.314   3.793
12295SOL     OW40678   4.188   1.743   4.047
12295SOL    HW140679   4.221   1.782   4.133
12295SOL    HW240680   4.264   1.736   3.982
12296SOL     OW40681   4.664   1.698   4.628
12296SOL    HW140682   4.744   1.641   4.649
12296SOL    HW240683   4.615   1.658   4.551
12297SOL     OW40684   4.106   0.700   4.204
12297SOL    HW140685   4.151   0.610   4.201
12297SOL    HW240686   4.012   0.689   4.237
12298SOL     OW40687   5.271   0.222   5.453
12298SOL    HW140688   5.266   0.259   5.545
12298SOL    HW240689   5.199   0.153   5.441
12299SOL     OW40690   4.338   0.122   3.841
12299SOL    HW140691   4.436   0.100   3.848
12299SOL    HW240692   4.307   0.105   3.748
12300SOL     OW40693   4.612   1.514   4.919
12300SOL    HW140694   4.589   1.489   4.825
12300SOL    HW240695   4.673   1.445   4.958
12301SOL     OW40696   4.527   1.402   4.648
12301SOL    HW140697   4.617   1.416   4.606
12301SOL    HW240698   4.456   1.404   4.577
12302SOL     OW40699   4.646   0.503   4.623
12302SOL    HW140700   4.621   0.494   4.527
12302SOL    HW240701   4.694   0.421   4.654
12303SOL     OW40702   4.263   0.064   4.236
12303SOL    HW140703   4.182   0.065   4.294
12303SOL    HW240704   4.266   0.147   4.181
12304SOL     OW40705   5.158   1.188   3.765
12304SOL    HW140706   5.190   1.112   3.822
12304SOL    HW240707   5.066   1.215   3.795
12305SOL     OW40708   4.021   0.035   3.895
12305SOL    HW140709   4.070   0.119   3.874
12305SOL    HW240710   4.083  -0.030   3.940
12306SOL     OW40711   4.659   0.236   4.204
12306SOL    HW140712   4.611   0.277   4.126
12306SOL    HW240713   4.758   0.234   4.185
12307SOL     OW40714   4.951   1.570   4.517
12307SOL    HW140715   4.972   1.644   4.452
12307SOL    HW240716   5.019   1.570   4.590
12308SOL     OW40717   4.183   1.152   4.465
12308SOL    HW140718   4.112   1.125   4.530
12308SOL    HW240719   4.157   1.124   4.372
12309SOL     OW40720   4.995   1.797   4.315
12309SOL    HW140721   5.039   1.861   4.251
12309SOL    HW240722   4.945   1.849   4.385
12310SOL     OW40723   4.756   0.549   3.740
12310SOL    HW140724   4.715   0.631   3.701
12310SOL    HW240725   4.820   0.575   3.813
12311SOL     OW40726   3.802   0.556   5.110
12311SOL    HW140727   3.894   0.555   5.069
12311SOL    HW240728   3.796   0.630   5.177
12312SOL     OW40729   4.285   0.222   4.871
12312SOL    HW140730   4.323   0.138   4.908
12312SOL    HW240731   4.197   0.241   4.915
12313SOL     OW40732   4.590   0.454   4.366
12313SOL    HW140733   4.558   0.526   4.304
12313SOL    HW240734   4.614   0.373   4.313
12314SOL     OW40735   4.741   0.039   4.477
12314SOL    HW140736   4.669   0.044   4.408
12314SOL    HW240737   4.717  -0.030   4.546
12315SOL     OW40738   5.153   1.173   4.591
12315SOL    HW140739   5.098   1.089   4.584
12315SOL    HW240740   5.179   1.202   4.499
12316SOL     OW40741   5.190   0.590   4.716
12316SOL    HW140742   5.160   0.495   4.723
12316SOL    HW240743   5.263   0.606   4.782
12317SOL     OW40744   5.581   0.833   4.101
12317SOL    HW140745   5.623   0.769   4.165
12317SOL    HW240746   5.543   0.782   4.023
12318SOL     OW40747   4.212   1.385   3.898
12318SOL    HW140748   4.125   1.370   3.945
12318SOL    HW240749   4.195   1.411   3.803
12319SOL     OW40750   5.388   1.280   4.381
12319SOL    HW140751   5.487   1.288   4.395
12319SOL    HW240752   5.343   1.364   4.412
12320SOL     OW40753   5.114   0.575   3.802
12320SOL    HW140754   5.060   0.554   3.883
12320SOL    HW240755   5.205   0.534   3.811
12321SOL     OW40756   4.251   0.256   4.052
12321SOL    HW140757   4.278   0.197   3.977
12321SOL    HW240758   4.251   0.351   4.021
12322SOL     OW40759   5.478   1.223   5.312
12322SOL    HW140760   5.569   1.184   5.299
12322SOL    HW240761   5.486   1.319   5.336
12323SOL     OW40762   4.788   1.347   5.064
12323SOL    HW140763   4.708   1.324   5.119
12323SOL    HW240764   4.871   1.321   5.113
12324SOL     OW40765   5.316   1.629   5.349
12324SOL    HW140766   5.343   1.663   5.259
12324SOL    HW240767   5.395   1.591   5.395
12325SOL     OW40768   4.835   1.195   4.824
12325SOL    HW140769   4.795   1.239   4.905
12325SOL    HW240770   4.794   1.232   4.741
12326SOL     OW40771   5.362   1.099   4.803
12326SOL    HW140772   5.367   1.180   4.862
12326SOL    HW240773   5.276   1.101   4.752
12327SOL     OW40774   4.704   1.116   5.443
12327SOL    HW140775   4.605   1.122   5.453
12327SOL    HW240776   4.727   1.036   5.387
12328SOL     OW40777   4.429   1.050   4.092
12328SOL    HW140778   4.415   1.057   4.191
12328SOL    HW240779   4.513   0.999   4.074
12329SOL     OW40780   4.134   0.813   4.975
12329SOL    HW140781   4.220   0.825   5.025
12329SOL    HW240782   4.092   0.726   5.002
12330SOL     OW40783   4.998   0.386   4.986
12330SOL    HW140784   5.019   0.460   5.050
12330SOL    HW240785   4.909   0.403   4.943
12331SOL     OW40786   4.091   1.100   4.225
12331SOL    HW140787   4.084   1.183   4.169
12331SOL    HW240788   4.095   1.020   4.165
12332SOL     OW40789   4.290   0.537   4.589
12332SOL    HW140790   4.302   0.603   4.515
12332SOL    HW240791   4.336   0.571   4.672
12333SOL     OW40792   4.976   1.348   4.112
12333SOL    HW140793   5.026   1.425   4.152
12333SOL    HW240794   4.881   1.350   4.144
12334SOL     OW40795   4.996   1.445   4.866
12334SOL    HW140796   5.043   1.458   4.953
12334SOL    HW240797   4.930   1.371   4.875
12335SOL     OW40798   5.306   0.639   4.196
12335SOL    HW140799   5.275   0.700   4.269
12335SOL    HW240800   5.356   0.691   4.127
12336SOL     OW40801   4.126   0.751   5.322
12336SOL    HW140802   4.194   0.806   5.275
12336SOL    HW240803   4.166   0.663   5.349
12337SOL     OW40804   4.228   0.050   5.464
12337SOL    HW140805   4.186  -0.007   5.394
12337SOL    HW240806   4.162   0.119   5.496
12338SOL     OW40807   4.297   0.870   4.753
12338SOL    HW140808   4.341   0.959   4.744
12338SOL    HW240809   4.234   0.870   4.830
12339SOL     OW40810   5.084   0.862   4.769
12339SOL    HW140811   5.009   0.862   4.703
12339SOL    HW240812   5.121   0.770   4.778
12340SOL     OW40813   4.933   0.525   3.999
12340SOL    HW140814   4.946   0.441   4.053
12340SOL    HW240815   4.904   0.599   4.059
12341SOL     OW40816   4.031   0.213   4.955
12341SOL    HW140817   4.008   0.250   5.045
12341SOL    HW240818   4.001   0.118   4.949
12342SOL     OW40819   3.761   1.310   5.006
12342SOL    HW140820   3.814   1.261   5.074
12342SOL    HW240821   3.783   1.408   5.011
12343SOL     OW40822   4.456   0.634   4.788
12343SOL    HW140823   4.515   0.608   4.712
12343SOL    HW240824   4.428   0.730   4.777
12344SOL     OW40825   5.452   0.935   5.578
12344SOL    HW140826   5.406   0.928   5.489
12344SOL    HW240827   5.390   0.979   5.644
12345SOL     OW40828   4.031   0.063   4.342
12345SOL    HW140829   4.020   0.157   4.375
12345SOL    HW240830   4.026   0.000   4.419
12346SOL     OW40831   5.346   0.367   4.098
12346SOL    HW140832   5.348   0.291   4.162
12346SOL    HW240833   5.298   0.444   4.138
12347SOL     OW40834   4.747   0.766   4.690
12347SOL    HW140835   4.762   0.787   4.786
12347SOL    HW240836   4.717   0.671   4.681
12348SOL     OW40837   4.704   1.573   5.424
12348SOL    HW140838   4.684   1.617   5.336
12348SOL    HW240839   4.743   1.482   5.408
12349SOL     OW40840   5.583   1.518   5.329
12349SOL    HW140841   5.597   1.545   5.234
12349SOL    HW240842   5.666   1.540   5.382
12350SOL     OW40843   4.074   0.898   5.528
12350SOL    HW140844   4.150   0.942   5.576
12350SOL    HW240845   4.109   0.851   5.446
12351SOL     OW40846   5.264   0.274   3.849
12351SOL    HW140847   5.203   0.199   3.872
12351SOL    HW240848   5.286   0.326   3.932
12352SOL     OW40849   5.027   0.838   3.766
12352SOL    HW140850   5.061   0.745   3.781
12352SOL    HW240851   5.045   0.865   3.671
12353SOL     OW40852   4.792   1.333   4.573
12353SOL    HW140853   4.799   1.249   4.518
12353SOL    HW240854   4.854   1.402   4.537
12354SOL     OW40855   4.043   0.810   4.673
12354SOL    HW140856   4.136   0.846   4.678
12354SOL    HW240857   4.037   0.725   4.725
12355SOL     OW40858   4.063   0.509   4.730
12355SOL    HW140859   4.011   0.426   4.713
12355SOL    HW240860   4.140   0.514   4.666
12356SOL     OW40861   4.862   0.380   5.402
12356SOL    HW140862   4.817   0.443   5.466
12356SOL    HW240863   4.955   0.411   5.385
12357SOL     OW40864   3.732   1.326   3.924
12357SOL    HW140865   3.639   1.347   3.893
12357SOL    HW240866   3.742   1.227   3.937
12358SOL     OW40867   3.812   1.801   4.651
12358SOL    HW140868   3.770   1.715   4.624
12358SOL    HW240869   3.906   1.804   4.617
12359SOL     OW40870   4.228   1.568   4.634
12359SOL    HW140871   4.294   1.642   4.643
12359SOL    HW240872   4.272   1.489   4.592
12360SOL     OW40873   3.764   0.544   4.838
12360SOL    HW140874   3.849   0.511   4.797
12360SOL    HW240875   3.777   0.559   4.936
12361SOL     OW40876   3.913   0.520   5.446
12361SOL    HW140877   3.972   0.480   5.376
12361SOL    HW240878   3.855   0.591   5.405
12362SOL     OW40879   4.539   0.572   4.049
12362SOL    HW140880   4.546   0.483   4.003
12362SOL    HW240881   4.445   0.606   4.041
12363SOL     OW40882   5.381   0.604   4.930
12363SOL    HW140883   5.343   0.535   4.992
12363SOL    HW240884   5.463   0.568   4.886
12364SOL     OW40885   4.395   0.464   4.993
12364SOL    HW140886   4.361   0.375   4.963
12364SOL    HW240887   4.421   0.518   4.913
12365SOL     OW40888   4.654   1.678   5.189
12365SOL    HW140889   4.630   1.660   5.094
12365SOL    HW240890   4.684   1.772   5.199
12366SOL     OW40891   3.883   1.137   5.190
12366SOL    HW140892   3.905   1.076   5.266
12366SOL    HW240893   3.893   1.088   5.104
12367SOL     OW40894   5.026   0.855   4.033
12367SOL    HW140895   4.940   0.824   4.075
12367SOL    HW240896   5.022   0.841   3.934
12368SOL     OW40897   5.483   1.747   4.878
12368SOL    HW140898   5.544   1.777   4.805
12368SOL    HW240899   5.445   1.658   4.856
12369SOL     OW40900   4.976   1.731   4.852
12369SOL    HW140901   5.060   1.736   4.798
12369SOL    HW240902   4.953   1.635   4.870
12370SOL     OW40903   3.807   1.258   4.746
12370SOL    HW140904   3.802   1.257   4.846
12370SOL    HW240905   3.724   1.217   4.708
12371SOL     OW40906   4.412   1.662   5.440
12371SOL    HW140907   4.356   1.743   5.449
12371SOL    HW240908   4.464   1.666   5.354
12372SOL     OW40909   5.112   1.573   4.201
12372SOL    HW140910   5.179   1.585   4.127
12372SOL    HW240911   5.072   1.662   4.224
12373SOL     OW40912   3.854   1.794   5.575
12373SOL    HW140913   3.813   1.720   5.628
12373SOL    HW240914   3.918   1.845   5.633
12374SOL     OW40915   5.004   0.927   4.396
12374SOL    HW140916   5.064   0.846   4.398
12374SOL    HW240917   5.044   0.996   4.336
12375SOL     OW40918   4.554   1.273   5.146
12375SOL    HW140919   4.549   1.306   5.241
12375SOL    HW240920   4.468   1.292   5.100
12376SOL     OW40921   4.396   1.616   3.878
12376SOL    HW140922   4.405   1.626   3.779
12376SOL    HW240923   4.356   1.527   3.899
12377SOL     OW40924   5.374   1.720   5.118
12377SOL    HW140925   5.427   1.730   5.034
12377SOL    HW240926   5.347   1.810   5.152
12378SOL     OW40927   3.987   0.326   4.444
12378SOL    HW140928   3.908   0.377   4.410
12378SOL    HW240929   3.978   0.311   4.542
12379SOL     OW40930   4.918   1.612   3.755
12379SOL    HW140931   4.924   1.519   3.792
12379SOL    HW240932   4.859   1.612   3.675
12380SOL     OW40933   4.546   1.002   5.096
12380SOL    HW140934   4.586   1.001   5.004
12380SOL    HW240935   4.556   1.094   5.136
12381SOL     OW40936   4.640   0.910   4.015
12381SOL    HW140937   4.703   0.948   3.947
12381SOL    HW240938   4.680   0.827   4.054
12382SOL     OW40939   5.228   1.607   3.768
12382SOL    HW140940   5.136   1.644   3.775
12382SOL    HW240941   5.266   1.627   3.678
12383SOL     OW40942   4.096   1.288   5.214
12383SOL    HW140943   4.083   1.381   5.180
12383SOL    HW240944   4.012   1.236   5.201
12384SOL     OW40945   5.338   1.292   5.013
12384SOL    HW140946   5.398   1.295   5.093
12384SOL    HW240947   5.263   1.356   5.026
12385SOL     OW40948   4.763   1.098   4.420
12385SOL    HW140949   4.693   1.051   4.474
12385SOL    HW240950   4.822   1.030   4.377
12386SOL     OW40951   4.314   1.487   4.215
12386SOL    HW140952   4.356   1.429   4.145
12386SOL    HW240953   4.270   1.566   4.171
12387SOL     OW40954   5.433   0.385   5.105
12387SOL    HW140955   5.506   0.454   5.109
12387SOL    HW240956   5.461   0.310   5.046
12388SOL     OW40957   3.979   1.348   4.014
12388SOL    HW140958   3.883   1.349   3.987
12388SOL    HW240959   3.991   1.401   4.098
12389SOL     OW40960   3.829   1.013   5.450
12389SOL    HW140961   3.752   0.980   5.504
12389SOL    HW240962   3.914   0.983   5.492
12390SOL     OW40963   3.799   0.345   3.757
12390SOL    HW140964   3.707   0.317   3.728
12390SOL    HW240965   3.830   0.422   3.701
12391SOL     OW40966   3.796   0.166   4.042
12391SOL    HW140967   3.779   0.249   3.988
12391SOL    HW240968   3.886   0.129   4.020
12392SOL     OW40969   4.337   0.842   5.155
12392SOL    HW140970   4.393   0.923   5.138
12392SOL    HW240971   4.396   0.762   5.158
12393SOL     OW40972   5.217   1.767   4.683
12393SOL    HW140973   5.250   1.831   4.614
12393SOL    HW240974   5.283   1.761   4.758
12394SOL     OW40975   4.440   0.565   5.432
12394SOL    HW140976   4.459   0.630   5.506
12394SOL    HW240977   4.500   0.485   5.441
12395SOL     OW40978   5.174   1.220   5.357
12395SOL    HW140979   5.165   1.210   5.456
12395SOL    HW240980   5.270   1.213   5.331
12396SOL     OW40981   5.398   0.883   4.978
12396SOL    HW140982   5.371   0.794   4.941
12396SOL    HW240983   5.399   0.951   4.905
12397SOL     OW40984   4.949   0.325   4.173
12397SOL    HW140985   5.014   0.251   4.162
12397SOL    HW240986   4.969   0.375   4.257
12398SOL     OW40987   4.318   0.745   4.376
12398SOL    HW140988   4.368   0.830   4.357
12398SOL    HW240989   4.230   0.747   4.328
12399SOL     OW40990   5.501   0.342   5.366
12399SOL    HW140991   5.484   0.373   5.272
12399SOL    HW240992   5.417   0.305   5.404
12400SOL     OW40993   5.454   0.934   5.241
12400SOL    HW140994   5.492   1.025   5.256
12400SOL    HW240995   5.446   0.917   5.142
12401SOL     OW40996   4.385   1.790   4.677
12401SOL    HW140997   4.339   1.878   4.664
12401SOL    HW240998   4.484   1.802   4.670
12402SOL     OW40999   4.583   0.956   4.585
12402SOL    HW141000   4.637   0.887   4.633
12402SOL    HW241001   4.551   1.025   4.651
12403SOL     OW41002   5.585   1.569   4.575
12403SOL    HW141003   5.514   1.557   4.505
12403SOL    HW241004   5.586   1.490   4.635
12404SOL     OW41005   3.945   1.314   5.568
12404SOL    HW141006   3.880   1.241   5.547
12404SOL    HW241007   3.949   1.328   5.666
12405SOL     OW41008   3.803   1.240   4.377
12405SOL    HW141009   3.802   1.193   4.465
12405SOL    HW241010   3.885   1.212   4.326
12406SOL     OW41011   4.396   1.391   5.348
12406SOL    HW141012   4.318   1.341   5.386
12406SOL    HW241013   4.393   1.486   5.379
12407SOL     OW41014   4.152   0.424   4.244
12407SOL    HW141015   4.182   0.352   4.182
12407SOL    HW241016   4.113   0.384   4.327
12408SOL     OW41017   5.429   1.487   4.828
12408SOL    HW141018   5.336   1.462   4.801
12408SOL    HW241019   5.455   1.437   4.910
12409SOL     OW41020   4.041   0.547   5.004
12409SOL    HW141021   4.079   0.488   5.076
12409SOL    HW241022   4.081   0.521   4.916
12410SOL     OW41023   4.536   1.586   4.411
12410SOL    HW141024   4.568   1.596   4.317
12410SOL    HW241025   4.457   1.524   4.413
12411SOL     OW41026   5.076   0.052   3.892
12411SOL    HW141027   5.111   0.011   3.808
12411SOL    HW241028   4.986   0.014   3.912
12412SOL     OW41029   5.024   0.453   4.415
12412SOL    HW141030   4.965   0.533   4.419
12412SOL    HW241031   5.039   0.418   4.508
12413SOL     OW41032   5.317   0.221   4.606
12413SOL    HW141033   5.233   0.220   4.660
12413SOL    HW241034   5.319   0.304   4.550
12414SOL     OW41035   3.763   1.077   4.024
12414SOL    HW141036   3.862   1.066   4.015
12414SOL    HW241037   3.723   0.991   4.056
12415SOL     OW41038   4.599   1.646   4.061
12415SOL    HW141039   4.522   1.611   4.007
12415SOL    HW241040   4.567   1.717   4.123
12416SOL     OW41041   3.954   0.628   5.699
12416SOL    HW141042   3.861   0.626   5.736
12416SOL    HW241043   3.955   0.589   5.607
12417SOL     OW41044   3.949   0.275   6.582
12417SOL    HW141045   3.984   0.258   6.674
12417SOL    HW241046   3.861   0.230   6.570
12418SOL     OW41047   3.743   0.368   6.233
12418SOL    HW141048   3.661   0.411   6.272
12418SOL    HW241049   3.715   0.295   6.170
12419SOL     OW41050   4.293   1.275   6.751
12419SOL    HW141051   4.200   1.268   6.714
12419SOL    HW241052   4.304   1.364   6.795
12420SOL     OW41053   4.859   0.703   6.303
12420SOL    HW141054   4.916   0.781   6.278
12420SOL    HW241055   4.799   0.729   6.379
12421SOL     OW41056   5.479   0.607   5.817
12421SOL    HW141057   5.467   0.594   5.718
12421SOL    HW241058   5.449   0.526   5.866
12422SOL     OW41059   4.492   1.144   6.609
12422SOL    HW141060   4.414   1.161   6.669
12422SOL    HW241061   4.526   1.231   6.573
12423SOL     OW41062   4.574   0.798   7.409
12423SOL    HW141063   4.570   0.874   7.474
12423SOL    HW241064   4.596   0.834   7.318
12424SOL     OW41065   4.409   1.012   6.251
12424SOL    HW141066   4.478   0.996   6.321
12424SOL    HW241067   4.336   1.069   6.289
12425SOL     OW41068   4.410   1.161   7.389
12425SOL    HW141069   4.470   1.240   7.403
12425SOL    HW241070   4.324   1.192   7.348
12426SOL     OW41071   4.059   1.435   6.647
12426SOL    HW141072   3.981   1.404   6.594
12426SOL    HW241073   4.117   1.493   6.590
12427SOL     OW41074   5.184   1.505   6.925
12427SOL    HW141075   5.208   1.599   6.951
12427SOL    HW241076   5.168   1.451   7.007
12428SOL     OW41077   4.162   0.392   7.085
12428SOL    HW141078   4.244   0.336   7.094
12428SOL    HW241079   4.081   0.334   7.089
12429SOL     OW41080   5.327   0.447   6.323
12429SOL    HW141081   5.253   0.493   6.273
12429SOL    HW241082   5.378   0.515   6.376
12430SOL     OW41083   3.955   1.713   6.069
12430SOL    HW141084   3.989   1.790   6.123
12430SOL    HW241085   3.999   1.713   5.979
12431SOL     OW41086   4.851   1.341   7.276
12431SOL    HW141087   4.898   1.341   7.364
12431SOL    HW241088   4.803   1.254   7.265
12432SOL     OW41089   3.954   1.434   6.124
12432SOL    HW141090   3.928   1.530   6.124
12432SOL    HW241091   3.883   1.380   6.169
12433SOL     OW41092   3.964   1.091   6.472
12433SOL    HW141093   3.978   1.007   6.524
12433SOL    HW241094   3.909   1.155   6.527
12434SOL     OW41095   4.344   1.786   7.025
12434SOL    HW141096   4.252   1.769   7.060
12434SOL    HW241097   4.372   1.878   7.051
12435SOL     OW41098   4.330   0.964   5.709
12435SOL    HW141099   4.337   1.048   5.655
12435SOL    HW241100   4.376   0.977   5.797
12436SOL     OW41101   5.318   0.114   7.066
12436SOL    HW141102   5.300   0.181   6.994
12436SOL    HW241103   5.315   0.160   7.155
12437SOL     OW41104   3.846   0.643   6.149
12437SOL    HW141105   3.801   0.555   6.166
12437SOL    HW241106   3.845   0.697   6.233
12438SOL     OW41107   5.566   1.767   5.945
12438SOL    HW141108   5.620   1.738   6.025
12438SOL    HW241109   5.596   1.857   5.916
12439SOL     OW41110   3.751   1.596   5.703
12439SOL    HW141111   3.732   1.500   5.724
12439SOL    HW241112   3.718   1.654   5.778
12440SOL     OW41113   5.413   0.922   6.198
12440SOL    HW141114   5.508   0.893   6.206
12440SOL    HW241115   5.405   0.987   6.123
12441SOL     OW41116   5.365   1.108   6.018
12441SOL    HW141117   5.451   1.110   5.966
12441SOL    HW241118   5.379   1.155   6.106
12442SOL     OW41119   3.837   0.737   7.183
12442SOL    HW141120   3.925   0.724   7.228
12442SOL    HW241121   3.824   0.834   7.161
12443SOL     OW41122   4.337   1.365   6.312
12443SOL    HW141123   4.288   1.278   6.321
12443SOL    HW241124   4.314   1.408   6.225
12444SOL     OW41125   5.017   1.228   7.009
12444SOL    HW141126   5.054   1.155   6.951
12444SOL    HW241127   5.069   1.233   7.094
12445SOL     OW41128   4.533   0.004   6.088
12445SOL    HW141129   4.573   0.095   6.079
12445SOL    HW241130   4.433   0.012   6.094
12446SOL     OW41131   3.921   0.976   6.850
12446SOL    HW141132   4.010   0.931   6.836
12446SOL    HW241133   3.848   0.911   6.831
12447SOL     OW41134   5.249   0.999   5.776
12447SOL    HW141135   5.186   0.923   5.789
12447SOL    HW241136   5.297   1.017   5.862
12448SOL     OW41137   4.911   1.792   7.202
12448SOL    HW141138   4.935   1.852   7.126
12448SOL    HW241139   4.918   1.697   7.172
12449SOL     OW41140   4.041   0.251   7.387
12449SOL    HW141141   4.112   0.322   7.393
12449SOL    HW241142   3.953   0.290   7.415
12450SOL     OW41143   5.190   1.417   6.539
12450SOL    HW141144   5.131   1.423   6.619
12450SOL    HW241145   5.175   1.329   6.493
12451SOL     OW41146   4.322   0.729   5.856
12451SOL    HW141147   4.346   0.798   5.788
12451SOL    HW241148   4.244   0.762   5.910
12452SOL     OW41149   5.005   0.345   6.530
12452SOL    HW141150   4.919   0.295   6.517
12452SOL    HW241151   5.067   0.291   6.586
12453SOL     OW41152   5.118   0.469   7.260
12453SOL    HW141153   5.098   0.512   7.348
12453SOL    HW241154   5.196   0.407   7.269
12454SOL     OW41155   4.715   0.410   6.828
12454SOL    HW141156   4.638   0.444   6.882
12454SOL    HW241157   4.681   0.359   6.749
12455SOL     OW41158   4.765   0.701   6.015
12455SOL    HW141159   4.791   0.697   6.111
12455SOL    HW241160   4.680   0.650   6.001
12456SOL     OW41161   3.800   0.811   6.375
12456SOL    HW141162   3.899   0.799   6.384
12456SOL    HW241163   3.776   0.906   6.396
12457SOL     OW41164   3.854   1.821   7.157
12457SOL    HW141165   3.844   1.806   7.256
12457SOL    HW241166   3.768   1.857   7.121
12458SOL     OW41167   5.443   0.585   7.417
12458SOL    HW141168   5.417   0.674   7.381
12458SOL    HW241169   5.441   0.517   7.344
12459SOL     OW41170   5.086   1.144   6.131
12459SOL    HW141171   5.169   1.115   6.083
12459SOL    HW241172   5.037   1.211   6.075
12460SOL     OW41173   4.274   0.196   6.471
12460SOL    HW141174   4.269   0.191   6.571
12460SOL    HW241175   4.276   0.292   6.442
12461SOL     OW41176   4.075   1.801   6.439
12461SOL    HW141177   4.125   1.715   6.445
12461SOL    HW241178   4.140   1.878   6.436
12462SOL     OW41179   5.519   1.066   6.459
12462SOL    HW141180   5.457   1.051   6.383
12462SOL    HW241181   5.467   1.077   6.544
12463SOL     OW41182   4.045   0.943   5.828
12463SOL    HW141183   4.127   0.982   5.786
12463SOL    HW241184   4.018   0.861   5.779
12464SOL     OW41185   5.182   0.735   6.314
12464SOL    HW141186   5.177   0.670   6.389
12464SOL    HW241187   5.262   0.794   6.327
12465SOL     OW41188   4.185   1.266   7.313
12465SOL    HW141189   4.135   1.267   7.227
12465SOL    HW241190   4.122   1.248   7.389
12466SOL     OW41191   3.926   0.285   7.084
12466SOL    HW141192   3.846   0.345   7.071
12466SOL    HW241193   3.916   0.236   7.170
12467SOL     OW41194   5.356   1.377   5.667
12467SOL    HW141195   5.324   1.471   5.657
12467SOL    HW241196   5.280   1.314   5.655
12468SOL     OW41197   4.188   1.743   5.909
12468SOL    HW141198   4.221   1.782   5.995
12468SOL    HW241199   4.264   1.736   5.844
12469SOL     OW41200   3.973   1.785   6.827
12469SOL    HW141201   4.030   1.720   6.877
12469SOL    HW241202   3.957   1.752   6.734
12470SOL     OW41203   4.664   1.698   6.490
12470SOL    HW141204   4.744   1.641   6.511
12470SOL    HW241205   4.615   1.658   6.413
12471SOL     OW41206   4.106   0.700   6.066
12471SOL    HW141207   4.151   0.610   6.063
12471SOL    HW241208   4.012   0.689   6.099
12472SOL     OW41209   5.271   0.222   7.315
12472SOL    HW141210   5.266   0.259   7.407
12472SOL    HW241211   5.199   0.153   7.303
12473SOL     OW41212   4.505   0.264   7.335
12473SOL    HW141213   4.572   0.203   7.378
12473SOL    HW241214   4.432   0.283   7.400
12474SOL     OW41215   5.075   0.590   7.019
12474SOL    HW141216   5.103   0.547   7.104
12474SOL    HW241217   5.100   0.686   7.020
12475SOL     OW41218   4.527   1.402   6.510
12475SOL    HW141219   4.617   1.416   6.468
12475SOL    HW241220   4.456   1.404   6.439
12476SOL     OW41221   4.646   0.503   6.485
12476SOL    HW141222   4.621   0.494   6.389
12476SOL    HW241223   4.694   0.421   6.516
12477SOL     OW41224   4.263   0.064   6.098
12477SOL    HW141225   4.182   0.065   6.156
12477SOL    HW241226   4.266   0.147   6.043
12478SOL     OW41227   5.158   1.188   5.627
12478SOL    HW141228   5.190   1.112   5.684
12478SOL    HW241229   5.066   1.215   5.657
12479SOL     OW41230   4.021   0.035   5.757
12479SOL    HW141231   4.070   0.119   5.736
12479SOL    HW241232   4.083  -0.030   5.802
12480SOL     OW41233   4.659   0.236   6.066
12480SOL    HW141234   4.611   0.277   5.988
12480SOL    HW241235   4.758   0.234   6.047
12481SOL     OW41236   4.800   0.683   7.050
12481SOL    HW141237   4.720   0.622   7.053
12481SOL    HW241238   4.881   0.630   7.026
12482SOL     OW41239   4.183   1.152   6.327
12482SOL    HW141240   4.112   1.125   6.392
12482SOL    HW241241   4.157   1.124   6.234
12483SOL     OW41242   4.756   0.549   5.602
12483SOL    HW141243   4.715   0.631   5.563
12483SOL    HW241244   4.820   0.575   5.675
12484SOL     OW41245   3.802   0.556   6.972
12484SOL    HW141246   3.894   0.555   6.931
12484SOL    HW241247   3.796   0.630   7.039
12485SOL     OW41248   4.285   0.222   6.733
12485SOL    HW141249   4.323   0.138   6.770
12485SOL    HW241250   4.197   0.241   6.777
12486SOL     OW41251   4.590   0.454   6.228
12486SOL    HW141252   4.558   0.526   6.166
12486SOL    HW241253   4.614   0.373   6.175
12487SOL     OW41254   5.153   1.173   6.453
12487SOL    HW141255   5.098   1.089   6.446
12487SOL    HW241256   5.179   1.202   6.361
12488SOL     OW41257   5.190   0.590   6.578
12488SOL    HW141258   5.160   0.495   6.585
12488SOL    HW241259   5.263   0.606   6.644
12489SOL     OW41260   5.581   0.833   5.963
12489SOL    HW141261   5.623   0.769   6.027
12489SOL    HW241262   5.543   0.782   5.885
12490SOL     OW41263   4.212   1.385   5.760
12490SOL    HW141264   4.125   1.370   5.807
12490SOL    HW241265   4.195   1.411   5.665
12491SOL     OW41266   5.388   1.280   6.243
12491SOL    HW141267   5.487   1.288   6.257
12491SOL    HW241268   5.343   1.364   6.274
12492SOL     OW41269   5.114   0.575   5.664
12492SOL    HW141270   5.060   0.554   5.745
12492SOL    HW241271   5.205   0.534   5.673
12493SOL     OW41272   4.251   0.256   5.914
12493SOL    HW141273   4.278   0.197   5.839
12493SOL    HW241274   4.251   0.351   5.883
12494SOL     OW41275   5.478   1.223   7.174
12494SOL    HW141276   5.569   1.184   7.161
12494SOL    HW241277   5.486   1.319   7.198
12495SOL     OW41278   5.316   1.629   7.211
12495SOL    HW141279   5.343   1.663   7.121
12495SOL    HW241280   5.395   1.591   7.257
12496SOL     OW41281   5.362   1.099   6.665
12496SOL    HW141282   5.367   1.180   6.724
12496SOL    HW241283   5.276   1.101   6.614
12497SOL     OW41284   4.639   0.089   6.988
12497SOL    HW141285   4.664   0.069   6.893
12497SOL    HW241286   4.711   0.145   7.030
12498SOL     OW41287   4.704   1.116   7.305
12498SOL    HW141288   4.605   1.122   7.315
12498SOL    HW241289   4.727   1.036   7.249
12499SOL     OW41290   4.429   1.050   5.954
12499SOL    HW141291   4.415   1.057   6.053
12499SOL    HW241292   4.513   0.999   5.936
12500SOL     OW41293   4.134   0.813   6.837
12500SOL    HW141294   4.220   0.825   6.887
12500SOL    HW241295   4.092   0.726   6.864
12501SOL     OW41296   4.998   0.386   6.848
12501SOL    HW141297   5.019   0.460   6.912
12501SOL    HW241298   4.909   0.403   6.805
12502SOL     OW41299   3.788   1.564   6.917
12502SOL    HW141300   3.742   1.646   6.883
12502SOL    HW241301   3.886   1.583   6.926
12503SOL     OW41302   4.091   1.100   6.087
12503SOL    HW141303   4.084   1.183   6.031
12503SOL    HW241304   4.095   1.020   6.027
12504SOL     OW41305   4.290   0.537   6.451
12504SOL    HW141306   4.302   0.603   6.377
12504SOL    HW241307   4.336   0.571   6.534
12505SOL     OW41308   5.306   0.639   6.058
12505SOL    HW141309   5.275   0.700   6.131
12505SOL    HW241310   5.356   0.691   5.989
12506SOL     OW41311   4.078   1.510   6.915
12506SOL    HW141312   4.057   1.466   6.828
12506SOL    HW241313   4.175   1.536   6.918
12507SOL     OW41314   4.126   0.751   7.184
12507SOL    HW141315   4.194   0.806   7.137
12507SOL    HW241316   4.166   0.663   7.211
12508SOL     OW41317   5.311   0.779   7.256
12508SOL    HW141318   5.219   0.817   7.251
12508SOL    HW241319   5.371   0.826   7.191
12509SOL     OW41320   4.737   0.105   7.356
12509SOL    HW141321   4.743   0.190   7.304
12509SOL    HW241322   4.769   0.029   7.299
12510SOL     OW41323   4.228   0.050   7.326
12510SOL    HW141324   4.186  -0.007   7.256
12510SOL    HW241325   4.162   0.119   7.358
12511SOL     OW41326   4.297   0.870   6.615
12511SOL    HW141327   4.341   0.959   6.606
12511SOL    HW241328   4.234   0.870   6.692
12512SOL     OW41329   5.084   0.862   6.631
12512SOL    HW141330   5.009   0.862   6.565
12512SOL    HW241331   5.121   0.770   6.640
12513SOL     OW41332   4.933   0.525   5.861
12513SOL    HW141333   4.946   0.441   5.915
12513SOL    HW241334   4.904   0.599   5.921
12514SOL     OW41335   4.031   0.213   6.817
12514SOL    HW141336   4.008   0.250   6.907
12514SOL    HW241337   4.001   0.118   6.811
12515SOL     OW41338   3.761   1.310   6.868
12515SOL    HW141339   3.814   1.261   6.936
12515SOL    HW241340   3.783   1.408   6.873
12516SOL     OW41341   4.456   0.634   6.650
12516SOL    HW141342   4.515   0.608   6.574
12516SOL    HW241343   4.428   0.730   6.639
12517SOL     OW41344   4.031   0.063   6.204
12517SOL    HW141345   4.020   0.157   6.237
12517SOL    HW241346   4.026   0.000   6.281
12518SOL     OW41347   5.346   0.367   5.960
12518SOL    HW141348   5.348   0.291   6.024
12518SOL    HW241349   5.298   0.444   6.000
12519SOL     OW41350   4.747   0.766   6.552
12519SOL    HW141351   4.762   0.787   6.648
12519SOL    HW241352   4.717   0.671   6.543
12520SOL     OW41353   4.704   1.573   7.286
12520SOL    HW141354   4.684   1.617   7.198
12520SOL    HW241355   4.743   1.482   7.270
12521SOL     OW41356   5.583   1.518   7.191
12521SOL    HW141357   5.597   1.545   7.096
12521SOL    HW241358   5.666   1.540   7.244
12522SOL     OW41359   4.074   0.898   7.390
12522SOL    HW141360   4.150   0.942   7.438
12522SOL    HW241361   4.109   0.851   7.308
12523SOL     OW41362   5.264   0.274   5.711
12523SOL    HW141363   5.203   0.199   5.734
12523SOL    HW241364   5.286   0.326   5.794
12524SOL     OW41365   5.027   0.838   5.628
12524SOL    HW141366   5.061   0.745   5.643
12524SOL    HW241367   5.045   0.865   5.533
12525SOL     OW41368   4.792   1.333   6.435
12525SOL    HW141369   4.799   1.249   6.380
12525SOL    HW241370   4.854   1.402   6.399
12526SOL     OW41371   4.043   0.810   6.535
12526SOL    HW141372   4.136   0.846   6.540
12526SOL    HW241373   4.037   0.725   6.587
12527SOL     OW41374   4.063   0.509   6.592
12527SOL    HW141375   4.011   0.426   6.575
12527SOL    HW241376   4.140   0.514   6.528
12528SOL     OW41377   4.862   0.380   7.264
12528SOL    HW141378   4.817   0.443   7.328
12528SOL    HW241379   4.955   0.411   7.247
12529SOL     OW41380   4.884   0.207   7.063
12529SOL    HW141381   4.884   0.271   7.140
12529SOL    HW241382   4.912   0.255   6.980
12530SOL     OW41383   3.732   1.326   5.786
12530SOL    HW141384   3.639   1.347   5.755
12530SOL    HW241385   3.742   1.227   5.799
12531SOL     OW41386   3.812   1.801   6.513
12531SOL    HW141387   3.770   1.715   6.486
12531SOL    HW241388   3.906   1.804   6.479
12532SOL     OW41389   4.228   1.568   6.496
12532SOL    HW141390   4.294   1.642   6.505
12532SOL    HW241391   4.272   1.489   6.454
12533SOL     OW41392   3.764   0.544   6.700
12533SOL    HW141393   3.849   0.511   6.659
12533SOL    HW241394   3.777   0.559   6.798
12534SOL     OW41395   3.913   0.520   7.308
12534SOL    HW141396   3.972   0.480   7.238
12534SOL    HW241397   3.855   0.591   7.267
12535SOL     OW41398   4.539   0.572   5.911
12535SOL    HW141399   4.546   0.483   5.865
12535SOL    HW241400   4.445   0.606   5.903
12536SOL     OW41401   5.381   0.604   6.792
12536SOL    HW141402   5.343   0.535   6.854
12536SOL    HW241403   5.463   0.568   6.748
12537SOL     OW41404   3.976   1.564   7.330
12537SOL    HW141405   3.946   1.621   7.406
12537SOL    HW241406   3.969   1.467   7.356
12538SOL     OW41407   4.395   0.464   6.855
12538SOL    HW141408   4.361   0.375   6.825
12538SOL    HW241409   4.421   0.518   6.775
12539SOL     OW41410   4.197   0.500   5.777
12539SOL    HW141411   4.258   0.580   5.781
12539SOL    HW241412   4.102   0.531   5.784
12540SOL     OW41413   3.883   1.137   7.052
12540SOL    HW141414   3.905   1.076   7.128
12540SOL    HW241415   3.893   1.088   6.966
12541SOL     OW41416   5.071   1.059   6.820
12541SOL    HW141417   5.095   0.996   6.746
12541SOL    HW241418   4.981   1.099   6.802
12542SOL     OW41419   5.026   0.855   5.895
12542SOL    HW141420   4.940   0.824   5.937
12542SOL    HW241421   5.022   0.841   5.796
12543SOL     OW41422   5.483   1.747   6.740
12543SOL    HW141423   5.544   1.777   6.667
12543SOL    HW241424   5.445   1.658   6.718
12544SOL     OW41425   3.807   1.258   6.608
12544SOL    HW141426   3.802   1.257   6.708
12544SOL    HW241427   3.724   1.217   6.570
12545SOL     OW41428   4.412   1.662   7.302
12545SOL    HW141429   4.356   1.743   7.311
12545SOL    HW241430   4.464   1.666   7.216
12546SOL     OW41431   5.450   0.135   6.109
12546SOL    HW141432   5.523   0.118   6.042
12546SOL    HW241433   5.419   0.048   6.147
12547SOL     OW41434   3.854   1.794   7.437
12547SOL    HW141435   3.813   1.720   7.490
12547SOL    HW241436   3.918   1.845   7.495
12548SOL     OW41437   5.004   0.927   6.258
12548SOL    HW141438   5.064   0.846   6.260
12548SOL    HW241439   5.044   0.996   6.198
12549SOL     OW41440   4.396   1.616   5.740
12549SOL    HW141441   4.405   1.626   5.641
12549SOL    HW241442   4.356   1.527   5.761
12550SOL     OW41443   5.374   1.720   6.980
12550SOL    HW141444   5.427   1.730   6.896
12550SOL    HW241445   5.347   1.810   7.014
12551SOL     OW41446   3.987   0.326   6.306
12551SOL    HW141447   3.908   0.377   6.272
12551SOL    HW241448   3.978   0.311   6.404
12552SOL     OW41449   4.640   0.910   5.877
12552SOL    HW141450   4.703   0.948   5.809
12552SOL    HW241451   4.680   0.827   5.916
12553SOL     OW41452   4.096   1.288   7.076
12553SOL    HW141453   4.083   1.381   7.042
12553SOL    HW241454   4.012   1.236   7.063
12554SOL     OW41455   5.338   1.292   6.875
12554SOL    HW141456   5.398   1.295   6.955
12554SOL    HW241457   5.263   1.356   6.888
12555SOL     OW41458   4.763   1.098   6.282
12555SOL    HW141459   4.693   1.051   6.336
12555SOL    HW241460   4.822   1.030   6.239
12556SOL     OW41461   4.738   0.236   6.557
12556SOL    HW141462   4.730   0.200   6.464
12556SOL    HW241463   4.736   0.160   6.622
12557SOL     OW41464   4.314   1.487   6.077
12557SOL    HW141465   4.356   1.429   6.007
12557SOL    HW241466   4.270   1.566   6.033
12558SOL     OW41467   3.979   1.348   5.876
12558SOL    HW141468   3.883   1.349   5.849
12558SOL    HW241469   3.991   1.401   5.960
12559SOL     OW41470   3.829   1.013   7.312
12559SOL    HW141471   3.752   0.980   7.366
12559SOL    HW241472   3.914   0.983   7.354
12560SOL     OW41473   4.396   0.203   7.075
12560SOL    HW141474   4.486   0.187   7.035
12560SOL    HW241475   4.404   0.208   7.174
12561SOL     OW41476   3.799   0.345   5.619
12561SOL    HW141477   3.707   0.317   5.590
12561SOL    HW241478   3.830   0.422   5.563
12562SOL     OW41479   5.164   0.856   6.984
12562SOL    HW141480   5.107   0.908   6.921
12562SOL    HW241481   5.260   0.868   6.960
12563SOL     OW41482   3.796   0.166   5.904
12563SOL    HW141483   3.779   0.249   5.850
12563SOL    HW241484   3.886   0.129   5.882
12564SOL     OW41485   5.217   1.767   6.545
12564SOL    HW141486   5.250   1.831   6.476
12564SOL    HW241487   5.283   1.761   6.620
12565SOL     OW41488   4.440   0.565   7.294
12565SOL    HW141489   4.459   0.630   7.368
12565SOL    HW241490   4.500   0.485   7.303
12566SOL     OW41491   4.114   1.741   7.146
12566SOL    HW141492   4.023   1.782   7.144
12566SOL    HW241493   4.107   1.647   7.178
12567SOL     OW41494   5.398   0.883   6.840
12567SOL    HW141495   5.371   0.794   6.803
12567SOL    HW241496   5.399   0.951   6.767
12568SOL     OW41497   4.318   0.745   6.238
12568SOL    HW141498   4.368   0.830   6.219
12568SOL    HW241499   4.230   0.747   6.190
12569SOL     OW41500   5.501   0.342   7.228
12569SOL    HW141501   5.484   0.373   7.134
12569SOL    HW241502   5.417   0.305   7.266
12570SOL     OW41503   5.454   0.934   7.103
12570SOL    HW141504   5.492   1.025   7.118
12570SOL    HW241505   5.446   0.917   7.004
12571SOL     OW41506   4.583   1.374   5.602
12571SOL    HW141507   4.537   1.389   5.690
12571SOL    HW241508   4.627   1.459   5.572
12572SOL     OW41509   4.385   1.790   6.539
12572SOL    HW141510   4.339   1.878   6.526
12572SOL    HW241511   4.484   1.802   6.532
12573SOL     OW41512   4.583   0.956   6.447
12573SOL    HW141513   4.637   0.887   6.495
12573SOL    HW241514   4.551   1.025   6.513
12574SOL     OW41515   4.807   0.984   5.673
12574SOL    HW141516   4.784   1.037   5.591
12574SOL    HW241517   4.888   0.928   5.654
12575SOL     OW41518   3.945   1.314   7.430
12575SOL    HW141519   3.880   1.241   7.409
12575SOL    HW241520   3.949   1.328   7.528
12576SOL     OW41521   3.803   1.240   6.239
12576SOL    HW141522   3.802   1.193   6.327
12576SOL    HW241523   3.885   1.212   6.188
12577SOL     OW41524   4.396   1.391   7.210
12577SOL    HW141525   4.318   1.341   7.248
12577SOL    HW241526   4.393   1.486   7.241
12578SOL     OW41527   4.152   0.424   6.106
12578SOL    HW141528   4.182   0.352   6.044
12578SOL    HW241529   4.113   0.384   6.189
12579SOL     OW41530   5.429   1.487   6.690
12579SOL    HW141531   5.336   1.462   6.663
12579SOL    HW241532   5.455   1.437   6.772
12580SOL     OW41533   4.041   0.547   6.866
12580SOL    HW141534   4.079   0.488   6.938
12580SOL    HW241535   4.081   0.521   6.778
12581SOL     OW41536   4.536   1.586   6.273
12581SOL    HW141537   4.568   1.596   6.179
12581SOL    HW241538   4.457   1.524   6.275
12582SOL     OW41539   5.148   0.214   6.698
12582SOL    HW141540   5.200   0.149   6.753
12582SOL    HW241541   5.099   0.277   6.759
12583SOL     OW41542   4.725   0.034   6.740
12583SOL    HW141543   4.662  -0.038   6.709
12583SOL    HW241544   4.818  -0.002   6.740
12584SOL     OW41545   4.494   1.330   5.887
12584SOL    HW141546   4.448   1.243   5.904
12584SOL    HW241547   4.585   1.327   5.928
12585SOL     OW41548   5.076   0.052   5.754
12585SOL    HW141549   5.111   0.011   5.670
12585SOL    HW241550   4.986   0.014   5.774
12586SOL     OW41551   5.024   0.453   6.277
12586SOL    HW141552   4.965   0.533   6.281
12586SOL    HW241553   5.039   0.418   6.370
12587SOL     OW41554   5.317   0.221   6.468
12587SOL    HW141555   5.233   0.220   6.522
12587SOL    HW241556   5.319   0.304   6.412
12588SOL     OW41557   3.763   1.077   5.886
12588SOL    HW141558   3.862   1.066   5.877
12588SOL    HW241559   3.723   0.991   5.918
12589SOL     OW41560   3.954   0.628   7.561
12589SOL    HW141561   3.861   0.626   7.598
12589SOL    HW241562   3.955   0.589   7.469
12590SOL     OW41563   3.949   0.275   8.444
12590SOL    HW141564   3.984   0.258   8.536
12590SOL    HW241565   3.861   0.230   8.432
12591SOL     OW41566   3.743   0.368   8.095
12591SOL    HW141567   3.661   0.411   8.134
12591SOL    HW241568   3.715   0.295   8.032
12592SOL     OW41569   4.293   1.275   8.613
12592SOL    HW141570   4.200   1.268   8.576
12592SOL    HW241571   4.304   1.364   8.657
12593SOL     OW41572   5.279   1.511   8.151
12593SOL    HW141573   5.222   1.495   8.232
12593SOL    HW241574   5.220   1.521   8.071
12594SOL     OW41575   4.859   0.703   8.165
12594SOL    HW141576   4.916   0.781   8.140
12594SOL    HW241577   4.799   0.729   8.241
12595SOL     OW41578   5.479   0.607   7.679
12595SOL    HW141579   5.467   0.594   7.580
12595SOL    HW241580   5.449   0.526   7.728
12596SOL     OW41581   4.492   1.144   8.471
12596SOL    HW141582   4.414   1.161   8.531
12596SOL    HW241583   4.526   1.231   8.435
12597SOL     OW41584   4.574   0.798   9.271
12597SOL    HW141585   4.570   0.874   9.336
12597SOL    HW241586   4.596   0.834   9.180
12598SOL     OW41587   4.409   1.012   8.113
12598SOL    HW141588   4.478   0.996   8.183
12598SOL    HW241589   4.336   1.069   8.151
12599SOL     OW41590   4.410   1.161   9.251
12599SOL    HW141591   4.470   1.240   9.265
12599SOL    HW241592   4.324   1.192   9.210
12600SOL     OW41593   4.059   1.435   8.509
12600SOL    HW141594   3.981   1.404   8.456
12600SOL    HW241595   4.117   1.493   8.452
12601SOL     OW41596   5.184   1.505   8.787
12601SOL    HW141597   5.208   1.599   8.813
12601SOL    HW241598   5.168   1.451   8.869
12602SOL     OW41599   4.162   0.392   8.947
12602SOL    HW141600   4.244   0.336   8.956
12602SOL    HW241601   4.081   0.334   8.951
12603SOL     OW41602   5.327   0.447   8.185
12603SOL    HW141603   5.253   0.493   8.135
12603SOL    HW241604   5.378   0.515   8.238
12604SOL     OW41605   3.955   1.713   7.931
12604SOL    HW141606   3.989   1.790   7.985
12604SOL    HW241607   3.999   1.713   7.841
12605SOL     OW41608   4.851   1.341   9.138
12605SOL    HW141609   4.898   1.341   9.226
12605SOL    HW241610   4.803   1.254   9.127
12606SOL     OW41611   3.954   1.434   7.986
12606SOL    HW141612   3.928   1.530   7.986
12606SOL    HW241613   3.883   1.380   8.031
12607SOL     OW41614   3.964   1.091   8.334
12607SOL    HW141615   3.978   1.007   8.386
12607SOL    HW241616   3.909   1.155   8.389
12608SOL     OW41617   4.330   0.964   7.571
12608SOL    HW141618   4.337   1.048   7.517
12608SOL    HW241619   4.376   0.977   7.659
12609SOL     OW41620   5.318   0.114   8.928
12609SOL    HW141621   5.300   0.181   8.856
12609SOL    HW241622   5.315   0.160   9.017
12610SOL     OW41623   3.846   0.643   8.011
12610SOL    HW141624   3.801   0.555   8.028
12610SOL    HW241625   3.845   0.697   8.095
12611SOL     OW41626   5.566   1.767   7.807
12611SOL    HW141627   5.620   1.738   7.887
12611SOL    HW241628   5.596   1.857   7.778
12612SOL     OW41629   3.751   1.596   7.565
12612SOL    HW141630   3.732   1.500   7.586
12612SOL    HW241631   3.718   1.654   7.640
12613SOL     OW41632   5.413   0.922   8.060
12613SOL    HW141633   5.508   0.893   8.068
12613SOL    HW241634   5.405   0.987   7.985
12614SOL     OW41635   5.365   1.108   7.880
12614SOL    HW141636   5.451   1.110   7.828
12614SOL    HW241637   5.379   1.155   7.968
12615SOL     OW41638   3.837   0.737   9.045
12615SOL    HW141639   3.925   0.724   9.090
12615SOL    HW241640   3.824   0.834   9.023
12616SOL     OW41641   4.337   1.365   8.174
12616SOL    HW141642   4.288   1.278   8.183
12616SOL    HW241643   4.314   1.408   8.087
12617SOL     OW41644   5.017   1.228   8.871
12617SOL    HW141645   5.054   1.155   8.813
12617SOL    HW241646   5.069   1.233   8.956
12618SOL     OW41647   3.921   0.976   8.712
12618SOL    HW141648   4.010   0.931   8.698
12618SOL    HW241649   3.848   0.911   8.693
12619SOL     OW41650   4.911   1.792   9.064
12619SOL    HW141651   4.935   1.852   8.988
12619SOL    HW241652   4.918   1.697   9.034
12620SOL     OW41653   4.041   0.251   9.249
12620SOL    HW141654   4.112   0.322   9.255
12620SOL    HW241655   3.953   0.290   9.277
12621SOL     OW41656   5.391   1.714   8.020
12621SOL    HW141657   5.350   1.691   7.932
12621SOL    HW241658   5.373   1.640   8.085
12622SOL     OW41659   4.322   0.729   7.718
12622SOL    HW141660   4.346   0.798   7.650
12622SOL    HW241661   4.244   0.762   7.772
12623SOL     OW41662   5.005   0.345   8.392
12623SOL    HW141663   4.919   0.295   8.379
12623SOL    HW241664   5.067   0.291   8.448
12624SOL     OW41665   5.300   1.662   7.755
12624SOL    HW141666   5.389   1.708   7.758
12624SOL    HW241667   5.279   1.638   7.660
12625SOL     OW41668   4.531   0.605   8.913
12625SOL    HW141669   4.484   0.602   9.002
12625SOL    HW241670   4.480   0.550   8.847
12626SOL     OW41671   5.118   0.469   9.122
12626SOL    HW141672   5.098   0.512   9.210
12626SOL    HW241673   5.196   0.407   9.131
12627SOL     OW41674   4.697   0.890   9.020
12627SOL    HW141675   4.743   0.806   8.991
12627SOL    HW241676   4.641   0.924   8.945
12628SOL     OW41677   4.715   0.410   8.690
12628SOL    HW141678   4.638   0.444   8.744
12628SOL    HW241679   4.681   0.359   8.611
12629SOL     OW41680   4.765   0.701   7.877
12629SOL    HW141681   4.791   0.697   7.973
12629SOL    HW241682   4.680   0.650   7.863
12630SOL     OW41683   3.800   0.811   8.237
12630SOL    HW141684   3.899   0.799   8.246
12630SOL    HW241685   3.776   0.906   8.258
12631SOL     OW41686   3.854   1.821   9.019
12631SOL    HW141687   3.844   1.806   9.118
12631SOL    HW241688   3.768   1.857   8.983
12632SOL     OW41689   4.589   0.348   7.643
12632SOL    HW141690   4.648   0.411   7.594
12632SOL    HW241691   4.608   0.254   7.614
12633SOL     OW41692   5.443   0.585   9.279
12633SOL    HW141693   5.417   0.674   9.243
12633SOL    HW241694   5.441   0.517   9.206
12634SOL     OW41695   5.086   1.144   7.993
12634SOL    HW141696   5.169   1.115   7.945
12634SOL    HW241697   5.037   1.211   7.937
12635SOL     OW41698   4.274   0.196   8.333
12635SOL    HW141699   4.269   0.191   8.433
12635SOL    HW241700   4.276   0.292   8.304
12636SOL     OW41701   4.732   1.456   7.925
12636SOL    HW141702   4.686   1.528   7.873
12636SOL    HW241703   4.728   1.476   8.023
12637SOL     OW41704   4.075   1.801   8.301
12637SOL    HW141705   4.125   1.715   8.307
12637SOL    HW241706   4.140   1.878   8.298
12638SOL     OW41707   5.519   1.066   8.321
12638SOL    HW141708   5.457   1.051   8.245
12638SOL    HW241709   5.467   1.077   8.406
12639SOL     OW41710   4.951   1.550   8.954
12639SOL    HW141711   4.957   1.473   9.018
12639SOL    HW241712   4.899   1.524   8.874
12640SOL     OW41713   4.045   0.943   7.690
12640SOL    HW141714   4.127   0.982   7.648
12640SOL    HW241715   4.018   0.861   7.641
12641SOL     OW41716   5.182   0.735   8.176
12641SOL    HW141717   5.177   0.670   8.251
12641SOL    HW241718   5.262   0.794   8.189
12642SOL     OW41719   4.185   1.266   9.175
12642SOL    HW141720   4.135   1.267   9.089
12642SOL    HW241721   4.122   1.248   9.251
12643SOL     OW41722   4.835   1.776   7.685
12643SOL    HW141723   4.775   1.714   7.735
12643SOL    HW241724   4.866   1.732   7.600
12644SOL     OW41725   3.926   0.285   8.946
12644SOL    HW141726   3.846   0.345   8.933
12644SOL    HW241727   3.916   0.236   9.032
12645SOL     OW41728   4.188   1.743   7.771
12645SOL    HW141729   4.221   1.782   7.857
12645SOL    HW241730   4.264   1.736   7.706
12646SOL     OW41731   5.124   0.107   7.874
12646SOL    HW141732   5.100   0.070   7.784
12646SOL    HW241733   5.223   0.123   7.878
12647SOL     OW41734   3.973   1.785   8.689
12647SOL    HW141735   4.030   1.720   8.739
12647SOL    HW241736   3.957   1.752   8.596
12648SOL     OW41737   4.664   1.698   8.352
12648SOL    HW141738   4.744   1.641   8.373
12648SOL    HW241739   4.615   1.658   8.275
12649SOL     OW41740   4.106   0.700   7.928
12649SOL    HW141741   4.151   0.610   7.925
12649SOL    HW241742   4.012   0.689   7.961
12650SOL     OW41743   5.271   0.222   9.177
12650SOL    HW141744   5.266   0.259   9.269
12650SOL    HW241745   5.199   0.153   9.165
12651SOL     OW41746   4.338   0.122   7.565
12651SOL    HW141747   4.436   0.100   7.572
12651SOL    HW241748   4.307   0.105   7.472
12652SOL     OW41749   4.505   0.264   9.197
12652SOL    HW141750   4.572   0.203   9.240
12652SOL    HW241751   4.432   0.283   9.262
12653SOL     OW41752   5.075   0.590   8.881
12653SOL    HW141753   5.103   0.547   8.966
12653SOL    HW241754   5.100   0.686   8.882
12654SOL     OW41755   4.527   1.402   8.372
12654SOL    HW141756   4.617   1.416   8.330
12654SOL    HW241757   4.456   1.404   8.301
12655SOL     OW41758   4.646   0.503   8.347
12655SOL    HW141759   4.621   0.494   8.251
12655SOL    HW241760   4.694   0.421   8.378
12656SOL     OW41761   4.263   0.064   7.960
12656SOL    HW141762   4.182   0.065   8.018
12656SOL    HW241763   4.266   0.147   7.905
12657SOL     OW41764   4.021   0.035   7.619
12657SOL    HW141765   4.070   0.119   7.598
12657SOL    HW241766   4.083  -0.030   7.664
12658SOL     OW41767   4.800   0.683   8.912
12658SOL    HW141768   4.720   0.622   8.915
12658SOL    HW241769   4.881   0.630   8.888
12659SOL     OW41770   4.183   1.152   8.189
12659SOL    HW141771   4.112   1.125   8.254
12659SOL    HW241772   4.157   1.124   8.096
12660SOL     OW41773   4.995   1.797   8.039
12660SOL    HW141774   5.039   1.861   7.975
12660SOL    HW241775   4.945   1.849   8.109
12661SOL     OW41776   4.756   0.549   7.464
12661SOL    HW141777   4.715   0.631   7.425
12661SOL    HW241778   4.820   0.575   7.537
12662SOL     OW41779   3.802   0.556   8.834
12662SOL    HW141780   3.894   0.555   8.793
12662SOL    HW241781   3.796   0.630   8.901
12663SOL     OW41782   4.285   0.222   8.595
12663SOL    HW141783   4.323   0.138   8.632
12663SOL    HW241784   4.197   0.241   8.639
12664SOL     OW41785   5.153   1.173   8.315
12664SOL    HW141786   5.098   1.089   8.308
12664SOL    HW241787   5.179   1.202   8.223
12665SOL     OW41788   5.190   0.590   8.440
12665SOL    HW141789   5.160   0.495   8.447
12665SOL    HW241790   5.263   0.606   8.506
12666SOL     OW41791   5.581   0.833   7.825
12666SOL    HW141792   5.623   0.769   7.889
12666SOL    HW241793   5.543   0.782   7.747
12667SOL     OW41794   4.212   1.385   7.622
12667SOL    HW141795   4.125   1.370   7.669
12667SOL    HW241796   4.195   1.411   7.527
12668SOL     OW41797   5.388   1.280   8.105
12668SOL    HW141798   5.487   1.288   8.119
12668SOL    HW241799   5.343   1.364   8.136
12669SOL     OW41800   5.114   0.575   7.526
12669SOL    HW141801   5.060   0.554   7.607
12669SOL    HW241802   5.205   0.534   7.535
12670SOL     OW41803   4.251   0.256   7.776
12670SOL    HW141804   4.278   0.197   7.701
12670SOL    HW241805   4.251   0.351   7.745
12671SOL     OW41806   4.788   1.347   8.788
12671SOL    HW141807   4.708   1.324   8.843
12671SOL    HW241808   4.871   1.321   8.837
12672SOL     OW41809   5.316   1.629   9.073
12672SOL    HW141810   5.343   1.663   8.983
12672SOL    HW241811   5.395   1.591   9.119
12673SOL     OW41812   5.362   1.099   8.527
12673SOL    HW141813   5.367   1.180   8.586
12673SOL    HW241814   5.276   1.101   8.476
12674SOL     OW41815   4.639   0.089   8.850
12674SOL    HW141816   4.664   0.069   8.755
12674SOL    HW241817   4.711   0.145   8.892
12675SOL     OW41818   4.704   1.116   9.167
12675SOL    HW141819   4.605   1.122   9.177
12675SOL    HW241820   4.727   1.036   9.111
12676SOL     OW41821   4.429   1.050   7.816
12676SOL    HW141822   4.415   1.057   7.915
12676SOL    HW241823   4.513   0.999   7.798
12677SOL     OW41824   4.134   0.813   8.699
12677SOL    HW141825   4.220   0.825   8.749
12677SOL    HW241826   4.092   0.726   8.726
12678SOL     OW41827   4.998   0.386   8.710
12678SOL    HW141828   5.019   0.460   8.774
12678SOL    HW241829   4.909   0.403   8.667
12679SOL     OW41830   3.788   1.564   8.779
12679SOL    HW141831   3.742   1.646   8.745
12679SOL    HW241832   3.886   1.583   8.788
12680SOL     OW41833   4.091   1.100   7.949
12680SOL    HW141834   4.084   1.183   7.893
12680SOL    HW241835   4.095   1.020   7.889
12681SOL     OW41836   4.290   0.537   8.313
12681SOL    HW141837   4.302   0.603   8.239
12681SOL    HW241838   4.336   0.571   8.396
12682SOL     OW41839   4.976   1.348   7.836
12682SOL    HW141840   5.026   1.425   7.876
12682SOL    HW241841   4.881   1.350   7.868
12683SOL     OW41842   5.306   0.639   7.920
12683SOL    HW141843   5.275   0.700   7.993
12683SOL    HW241844   5.356   0.691   7.851
12684SOL     OW41845   4.126   0.751   9.046
12684SOL    HW141846   4.194   0.806   8.999
12684SOL    HW241847   4.166   0.663   9.073
12685SOL     OW41848   5.311   0.779   9.118
12685SOL    HW141849   5.219   0.817   9.113
12685SOL    HW241850   5.371   0.826   9.053
12686SOL     OW41851   4.737   0.105   9.218
12686SOL    HW141852   4.743   0.190   9.166
12686SOL    HW241853   4.769   0.029   9.161
12687SOL     OW41854   4.228   0.050   9.188
12687SOL    HW141855   4.186  -0.007   9.118
12687SOL    HW241856   4.162   0.119   9.220
12688SOL     OW41857   4.297   0.870   8.477
12688SOL    HW141858   4.341   0.959   8.468
12688SOL    HW241859   4.234   0.870   8.554
12689SOL     OW41860   5.084   0.862   8.493
12689SOL    HW141861   5.009   0.862   8.427
12689SOL    HW241862   5.121   0.770   8.502
12690SOL     OW41863   4.933   0.525   7.723
12690SOL    HW141864   4.946   0.441   7.777
12690SOL    HW241865   4.904   0.599   7.783
12691SOL     OW41866   4.031   0.213   8.679
12691SOL    HW141867   4.008   0.250   8.769
12691SOL    HW241868   4.001   0.118   8.673
12692SOL     OW41869   3.761   1.310   8.730
12692SOL    HW141870   3.814   1.261   8.798
12692SOL    HW241871   3.783   1.408   8.735
12693SOL     OW41872   4.456   0.634   8.512
12693SOL    HW141873   4.515   0.608   8.436
12693SOL    HW241874   4.428   0.730   8.501
12694SOL     OW41875   5.452   0.935   9.302
12694SOL    HW141876   5.406   0.928   9.213
12694SOL    HW241877   5.390   0.979   9.368
12695SOL     OW41878   4.031   0.063   8.066
12695SOL    HW141879   4.020   0.157   8.099
12695SOL    HW241880   4.026   0.000   8.143
12696SOL     OW41881   5.346   0.367   7.822
12696SOL    HW141882   5.348   0.291   7.886
12696SOL    HW241883   5.298   0.444   7.862
12697SOL     OW41884   4.747   0.766   8.414
12697SOL    HW141885   4.762   0.787   8.510
12697SOL    HW241886   4.717   0.671   8.405
12698SOL     OW41887   4.704   1.573   9.148
12698SOL    HW141888   4.684   1.617   9.060
12698SOL    HW241889   4.743   1.482   9.132
12699SOL     OW41890   5.583   1.518   9.053
12699SOL    HW141891   5.597   1.545   8.958
12699SOL    HW241892   5.666   1.540   9.106
12700SOL     OW41893   4.074   0.898   9.252
12700SOL    HW141894   4.150   0.942   9.300
12700SOL    HW241895   4.109   0.851   9.170
12701SOL     OW41896   5.264   0.274   7.573
12701SOL    HW141897   5.203   0.199   7.596
12701SOL    HW241898   5.286   0.326   7.656
12702SOL     OW41899   5.027   0.838   7.490
12702SOL    HW141900   5.061   0.745   7.505
12702SOL    HW241901   5.045   0.865   7.395
12703SOL     OW41902   4.043   0.810   8.397
12703SOL    HW141903   4.136   0.846   8.402
12703SOL    HW241904   4.037   0.725   8.449
12704SOL     OW41905   4.063   0.509   8.454
12704SOL    HW141906   4.011   0.426   8.437
12704SOL    HW241907   4.140   0.514   8.390
12705SOL     OW41908   4.862   0.380   9.126
12705SOL    HW141909   4.817   0.443   9.190
12705SOL    HW241910   4.955   0.411   9.109
12706SOL     OW41911   4.884   0.207   8.925
12706SOL    HW141912   4.884   0.271   9.002
12706SOL    HW241913   4.912   0.255   8.842
12707SOL     OW41914   3.732   1.326   7.648
12707SOL    HW141915   3.639   1.347   7.617
12707SOL    HW241916   3.742   1.227   7.661
12708SOL     OW41917   3.812   1.801   8.375
12708SOL    HW141918   3.770   1.715   8.348
12708SOL    HW241919   3.906   1.804   8.341
12709SOL     OW41920   4.228   1.568   8.358
12709SOL    HW141921   4.294   1.642   8.367
12709SOL    HW241922   4.272   1.489   8.316
12710SOL     OW41923   4.726   0.796   8.686
12710SOL    HW141924   4.767   0.764   8.772
12710SOL    HW241925   4.630   0.769   8.683
12711SOL     OW41926   3.764   0.544   8.562
12711SOL    HW141927   3.849   0.511   8.521
12711SOL    HW241928   3.777   0.559   8.660
12712SOL     OW41929   5.093   0.950   9.108
12712SOL    HW141930   5.132   1.039   9.128
12712SOL    HW241931   5.103   0.930   9.011
12713SOL     OW41932   4.539   0.572   7.773
12713SOL    HW141933   4.546   0.483   7.727
12713SOL    HW241934   4.445   0.606   7.765
12714SOL     OW41935   5.381   0.604   8.654
12714SOL    HW141936   5.343   0.535   8.716
12714SOL    HW241937   5.463   0.568   8.610
12715SOL     OW41938   3.976   1.564   9.192
12715SOL    HW141939   3.946   1.621   9.268
12715SOL    HW241940   3.969   1.467   9.218
12716SOL     OW41941   4.395   0.464   8.717
12716SOL    HW141942   4.361   0.375   8.687
12716SOL    HW241943   4.421   0.518   8.637
12717SOL     OW41944   4.197   0.500   7.639
12717SOL    HW141945   4.258   0.580   7.643
12717SOL    HW241946   4.102   0.531   7.646
12718SOL     OW41947   3.883   1.137   8.914
12718SOL    HW141948   3.905   1.076   8.990
12718SOL    HW241949   3.893   1.088   8.828
12719SOL     OW41950   5.071   1.059   8.682
12719SOL    HW141951   5.095   0.996   8.608
12719SOL    HW241952   4.981   1.099   8.664
12720SOL     OW41953   5.026   0.855   7.757
12720SOL    HW141954   4.940   0.824   7.799
12720SOL    HW241955   5.022   0.841   7.658
12721SOL     OW41956   5.483   1.747   8.602
12721SOL    HW141957   5.544   1.777   8.529
12721SOL    HW241958   5.445   1.658   8.580
12722SOL     OW41959   4.976   1.731   8.576
12722SOL    HW141960   5.060   1.736   8.522
12722SOL    HW241961   4.953   1.635   8.594
12723SOL     OW41962   3.807   1.258   8.470
12723SOL    HW141963   3.802   1.257   8.570
12723SOL    HW241964   3.724   1.217   8.432
12724SOL     OW41965   5.450   0.135   7.971
12724SOL    HW141966   5.523   0.118   7.904
12724SOL    HW241967   5.419   0.048   8.009
12725SOL     OW41968   5.112   1.573   7.925
12725SOL    HW141969   5.179   1.585   7.851
12725SOL    HW241970   5.072   1.662   7.948
12726SOL     OW41971   3.854   1.794   9.299
12726SOL    HW141972   3.813   1.720   9.352
12726SOL    HW241973   3.918   1.845   9.357
12727SOL     OW41974   5.004   0.927   8.120
12727SOL    HW141975   5.064   0.846   8.122
12727SOL    HW241976   5.044   0.996   8.060
12728SOL     OW41977   4.554   1.273   8.870
12728SOL    HW141978   4.549   1.306   8.965
12728SOL    HW241979   4.468   1.292   8.824
12729SOL     OW41980   4.396   1.616   7.602
12729SOL    HW141981   4.405   1.626   7.503
12729SOL    HW241982   4.356   1.527   7.623
12730SOL     OW41983   5.374   1.720   8.842
12730SOL    HW141984   5.427   1.730   8.758
12730SOL    HW241985   5.347   1.810   8.876
12731SOL     OW41986   3.987   0.326   8.168
12731SOL    HW141987   3.908   0.377   8.134
12731SOL    HW241988   3.978   0.311   8.266
12732SOL     OW41989   4.918   1.612   7.479
12732SOL    HW141990   4.924   1.519   7.516
12732SOL    HW241991   4.859   1.612   7.399
12733SOL     OW41992   4.546   1.002   8.820
12733SOL    HW141993   4.586   1.001   8.728
12733SOL    HW241994   4.556   1.094   8.860
12734SOL     OW41995   4.640   0.910   7.739
12734SOL    HW141996   4.703   0.948   7.671
12734SOL    HW241997   4.680   0.827   7.778
12735SOL     OW41998   5.228   1.607   7.492
12735SOL    HW141999   5.136   1.644   7.499
12735SOL    HW242000   5.266   1.627   7.402
12736SOL     OW42001   4.096   1.288   8.938
12736SOL    HW142002   4.083   1.381   8.904
12736SOL    HW242003   4.012   1.236   8.925
12737SOL     OW42004   5.338   1.292   8.737
12737SOL    HW142005   5.398   1.295   8.817
12737SOL    HW242006   5.263   1.356   8.750
12738SOL     OW42007   4.738   0.236   8.419
12738SOL    HW142008   4.730   0.200   8.326
12738SOL    HW242009   4.736   0.160   8.484
12739SOL     OW42010   4.314   1.487   7.939
12739SOL    HW142011   4.356   1.429   7.869
12739SOL    HW242012   4.270   1.566   7.895
12740SOL     OW42013   5.433   0.385   8.829
12740SOL    HW142014   5.506   0.454   8.833
12740SOL    HW242015   5.461   0.310   8.770
12741SOL     OW42016   3.979   1.348   7.738
12741SOL    HW142017   3.883   1.349   7.711
12741SOL    HW242018   3.991   1.401   7.822
12742SOL     OW42019   3.829   1.013   9.174
12742SOL    HW142020   3.752   0.980   9.228
12742SOL    HW242021   3.914   0.983   9.216
12743SOL     OW42022   4.396   0.203   8.937
12743SOL    HW142023   4.486   0.187   8.897
12743SOL    HW242024   4.404   0.208   9.036
12744SOL     OW42025   3.799   0.345   7.481
12744SOL    HW142026   3.707   0.317   7.452
12744SOL    HW242027   3.830   0.422   7.425
12745SOL     OW42028   5.164   0.856   8.846
12745SOL    HW142029   5.107   0.908   8.783
12745SOL    HW242030   5.260   0.868   8.822
12746SOL     OW42031   3.796   0.166   7.766
12746SOL    HW142032   3.779   0.249   7.712
12746SOL    HW242033   3.886   0.129   7.744
12747SOL     OW42034   4.907   1.335   7.567
12747SOL    HW142035   4.808   1.324   7.569
12747SOL    HW242036   4.941   1.350   7.660
12748SOL     OW42037   4.337   0.842   8.879
12748SOL    HW142038   4.393   0.923   8.862
12748SOL    HW242039   4.396   0.762   8.882
12749SOL     OW42040   5.217   1.767   8.407
12749SOL    HW142041   5.250   1.831   8.338
12749SOL    HW242042   5.283   1.761   8.482
12750SOL     OW42043   4.440   0.565   9.156
12750SOL    HW142044   4.459   0.630   9.230
12750SOL    HW242045   4.500   0.485   9.165
12751SOL     OW42046   5.398   0.883   8.702
12751SOL    HW142047   5.371   0.794   8.665
12751SOL    HW242048   5.399   0.951   8.629
12752SOL     OW42049   4.949   0.325   7.897
12752SOL    HW142050   5.014   0.251   7.886
12752SOL    HW242051   4.969   0.375   7.981
12753SOL     OW42052   4.318   0.745   8.100
12753SOL    HW142053   4.368   0.830   8.081
12753SOL    HW242054   4.230   0.747   8.052
12754SOL     OW42055   5.501   0.342   9.090
12754SOL    HW142056   5.484   0.373   8.996
12754SOL    HW242057   5.417   0.305   9.128
12755SOL     OW42058   5.454   0.934   8.965
12755SOL    HW142059   5.492   1.025   8.980
12755SOL    HW242060   5.446   0.917   8.866
12756SOL     OW42061   4.583   1.374   7.464
12756SOL    HW142062   4.537   1.389   7.552
12756SOL    HW242063   4.627   1.459   7.434
12757SOL     OW42064   4.385   1.790   8.401
12757SOL    HW142065   4.339   1.878   8.388
12757SOL    HW242066   4.484   1.802   8.394
12758SOL     OW42067   4.583   0.956   8.309
12758SOL    HW142068   4.637   0.887   8.357
12758SOL    HW242069   4.551   1.025   8.375
12759SOL     OW42070   4.807   0.984   7.535
12759SOL    HW142071   4.784   1.037   7.453
12759SOL    HW242072   4.888   0.928   7.516
12760SOL     OW42073   5.585   1.569   8.299
12760SOL    HW142074   5.514   1.557   8.229
12760SOL    HW242075   5.586   1.490   8.359
12761SOL     OW42076   3.945   1.314   9.292
12761SOL    HW142077   3.880   1.241   9.271
12761SOL    HW242078   3.949   1.328   9.390
12762SOL     OW42079   3.803   1.240   8.101
12762SOL    HW142080   3.802   1.193   8.189
12762SOL    HW242081   3.885   1.212   8.050
12763SOL     OW42082   5.548   0.192   8.675
12763SOL    HW142083   5.544   0.102   8.719
12763SOL    HW242084   5.551   0.181   8.576
12764SOL     OW42085   4.152   0.424   7.968
12764SOL    HW142086   4.182   0.352   7.906
12764SOL    HW242087   4.113   0.384   8.051
12765SOL     OW42088   5.429   1.487   8.552
12765SOL    HW142089   5.336   1.462   8.525
12765SOL    HW242090   5.455   1.437   8.634
12766SOL     OW42091   4.041   0.547   8.728
12766SOL    HW142092   4.079   0.488   8.800
12766SOL    HW242093   4.081   0.521   8.640
12767SOL     OW42094   4.536   1.586   8.135
12767SOL    HW142095   4.568   1.596   8.041
12767SOL    HW242096   4.457   1.524   8.137
12768SOL     OW42097   4.725   0.034   8.602
12768SOL    HW142098   4.662  -0.038   8.571
12768SOL    HW242099   4.818  -0.002   8.602
12769SOL     OW42100   4.494   1.330   7.749
12769SOL    HW142101   4.448   1.243   7.766
12769SOL    HW242102   4.585   1.327   7.790
12770SOL     OW42103   5.076   0.052   7.616
12770SOL    HW142104   5.111   0.011   7.532
12770SOL    HW242105   4.986   0.014   7.636
12771SOL     OW42106   5.024   0.453   8.139
12771SOL    HW142107   4.965   0.533   8.143
12771SOL    HW242108   5.039   0.418   8.232
12772SOL     OW42109   3.763   1.077   7.748
12772SOL    HW142110   3.862   1.066   7.739
12772SOL    HW242111   3.723   0.991   7.780
12773SOL     OW42112   4.599   1.646   7.785
12773SOL    HW142113   4.522   1.611   7.731
12773SOL    HW242114   4.567   1.717   7.847
12774SOL     OW42115   3.954   0.628   9.423
12774SOL    HW142116   3.861   0.626   9.460
12774SOL    HW242117   3.955   0.589   9.331
12775SOL     OW42118   5.479   0.607   9.541
12775SOL    HW142119   5.467   0.594   9.442
12775SOL    HW242120   5.449   0.526   9.590
12776SOL     OW42121   3.955   1.713   9.793
12776SOL    HW142122   3.989   1.790   9.847
12776SOL    HW242123   3.999   1.713   9.703
12777SOL     OW42124   3.954   1.434   9.848
12777SOL    HW142125   3.928   1.530   9.848
12777SOL    HW242126   3.883   1.380   9.893
12778SOL     OW42127   4.330   0.964   9.433
12778SOL    HW142128   4.337   1.048   9.379
12778SOL    HW242129   4.376   0.977   9.521
12779SOL     OW42130   3.846   0.643   9.873
12779SOL    HW142131   3.801   0.555   9.890
12779SOL    HW242132   3.845   0.697   9.957
12780SOL     OW42133   5.566   1.767   9.669
12780SOL    HW142134   5.620   1.738   9.749
12780SOL    HW242135   5.596   1.857   9.640
12781SOL     OW42136   3.751   1.596   9.427
12781SOL    HW142137   3.732   1.500   9.448
12781SOL    HW242138   3.718   1.654   9.502
12782SOL     OW42139   5.413   0.922   9.922
12782SOL    HW142140   5.508   0.893   9.930
12782SOL    HW242141   5.405   0.987   9.847
12783SOL     OW42142   5.365   1.108   9.742
12783SOL    HW142143   5.451   1.110   9.690
12783SOL    HW242144   5.379   1.155   9.830
12784SOL     OW42145   4.337   1.365  10.036
12784SOL    HW142146   4.288   1.278  10.045
12784SOL    HW242147   4.314   1.408   9.949
12785SOL     OW42148   4.533   0.004   9.812
12785SOL    HW142149   4.573   0.095   9.803
12785SOL    HW242150   4.433   0.012   9.818
12786SOL     OW42151   5.249   0.999   9.500
12786SOL    HW142152   5.186   0.923   9.513
12786SOL    HW242153   5.297   1.017   9.586
12787SOL     OW42154   4.322   0.729   9.580
12787SOL    HW142155   4.346   0.798   9.512
12787SOL    HW242156   4.244   0.762   9.634
12788SOL     OW42157   5.300   1.662   9.617
12788SOL    HW142158   5.389   1.708   9.620
12788SOL    HW242159   5.279   1.638   9.522
12789SOL     OW42160   4.765   0.701   9.739
12789SOL    HW142161   4.791   0.697   9.835
12789SOL    HW242162   4.680   0.650   9.725
12790SOL     OW42163   3.800   0.811  10.099
12790SOL    HW142164   3.899   0.799  10.108
12790SOL    HW242165   3.776   0.906  10.120
12791SOL     OW42166   4.589   0.348   9.505
12791SOL    HW142167   4.648   0.411   9.456
12791SOL    HW242168   4.608   0.254   9.476
12792SOL     OW42169   5.086   1.144   9.855
12792SOL    HW142170   5.169   1.115   9.807
12792SOL    HW242171   5.037   1.211   9.799
12793SOL     OW42172   4.732   1.456   9.787
12793SOL    HW142173   4.686   1.528   9.735
12793SOL    HW242174   4.728   1.476   9.885
12794SOL     OW42175   4.075   1.801  10.163
12794SOL    HW142176   4.125   1.715  10.169
12794SOL    HW242177   4.140   1.878  10.160
12795SOL     OW42178   4.835   1.776   9.547
12795SOL    HW142179   4.775   1.714   9.597
12795SOL    HW242180   4.866   1.732   9.462
12796SOL     OW42181   4.188   1.743   9.633
12796SOL    HW142182   4.221   1.782   9.719
12796SOL    HW242183   4.264   1.736   9.568
12797SOL     OW42184   5.124   0.107   9.736
12797SOL    HW142185   5.100   0.070   9.646
12797SOL    HW242186   5.223   0.123   9.740
12798SOL     OW42187   4.338   0.122   9.427
12798SOL    HW142188   4.436   0.100   9.434
12798SOL    HW242189   4.307   0.105   9.334
12799SOL     OW42190   4.263   0.064   9.822
12799SOL    HW142191   4.182   0.065   9.880
12799SOL    HW242192   4.266   0.147   9.767
12800SOL     OW42193   5.158   1.188   9.351
12800SOL    HW142194   5.190   1.112   9.408
12800SOL    HW242195   5.066   1.215   9.381
12801SOL     OW42196   4.021   0.035   9.481
12801SOL    HW142197   4.070   0.119   9.460
12801SOL    HW242198   4.083  -0.030   9.526
12802SOL     OW42199   4.659   0.236   9.790
12802SOL    HW142200   4.611   0.277   9.712
12802SOL    HW242201   4.758   0.234   9.771
12803SOL     OW42202   4.183   1.152  10.051
12803SOL    HW142203   4.112   1.125  10.116
12803SOL    HW242204   4.157   1.124   9.958
12804SOL     OW42205   4.995   1.797   9.901
12804SOL    HW142206   5.039   1.861   9.837
12804SOL    HW242207   4.945   1.849   9.971
12805SOL     OW42208   4.756   0.549   9.326
12805SOL    HW142209   4.715   0.631   9.287
12805SOL    HW242210   4.820   0.575   9.399
12806SOL     OW42211   4.590   0.454   9.952
12806SOL    HW142212   4.558   0.526   9.890
12806SOL    HW242213   4.614   0.373   9.899
12807SOL     OW42214   5.581   0.833   9.687
12807SOL    HW142215   5.623   0.769   9.751
12807SOL    HW242216   5.543   0.782   9.609
12808SOL     OW42217   4.212   1.385   9.484
12808SOL    HW142218   4.125   1.370   9.531
12808SOL    HW242219   4.195   1.411   9.389
12809SOL     OW42220   4.251   0.256   9.638
12809SOL    HW142221   4.278   0.197   9.563
12809SOL    HW242222   4.251   0.351   9.607
12810SOL     OW42223   4.031   0.063   9.928
12810SOL    HW142224   4.020   0.157   9.961
12810SOL    HW242225   4.026   0.000  10.005
12811SOL     OW42226   5.346   0.367   9.684
12811SOL    HW142227   5.348   0.291   9.748
12811SOL    HW242228   5.298   0.444   9.724
12812SOL     OW42229   5.264   0.274   9.435
12812SOL    HW142230   5.203   0.199   9.458
12812SOL    HW242231   5.286   0.326   9.518
12813SOL     OW42232   5.027   0.838   9.352
12813SOL    HW142233   5.061   0.745   9.367
12813SOL    HW242234   5.045   0.865   9.257
12814SOL     OW42235   3.732   1.326   9.510
12814SOL    HW142236   3.639   1.347   9.479
12814SOL    HW242237   3.742   1.227   9.523
12815SOL     OW42238   4.539   0.572   9.635
12815SOL    HW142239   4.546   0.483   9.589
12815SOL    HW242240   4.445   0.606   9.627
12816SOL     OW42241   4.197   0.500   9.501
12816SOL    HW142242   4.258   0.580   9.505
12816SOL    HW242243   4.102   0.531   9.508
12817SOL     OW42244   5.450   0.135   9.833
12817SOL    HW142245   5.523   0.118   9.766
12817SOL    HW242246   5.419   0.048   9.871
12818SOL     OW42247   5.112   1.573   9.787
12818SOL    HW142248   5.179   1.585   9.713
12818SOL    HW242249   5.072   1.662   9.810
12819SOL     OW42250   4.396   1.616   9.464
12819SOL    HW142251   4.405   1.626   9.365
12819SOL    HW242252   4.356   1.527   9.485
12820SOL     OW42253   5.565   0.175  10.273
12820SOL    HW142254   5.604   0.090  10.237
12820SOL    HW242255   5.467   0.177  10.254
12821SOL     OW42256   4.918   1.612   9.341
12821SOL    HW142257   4.924   1.519   9.378
12821SOL    HW242258   4.859   1.612   9.261
12822SOL     OW42259   4.640   0.910   9.601
12822SOL    HW142260   4.703   0.948   9.533
12822SOL    HW242261   4.680   0.827   9.640
12823SOL     OW42262   5.228   1.607   9.354
12823SOL    HW142263   5.136   1.644   9.361
12823SOL    HW242264   5.266   1.627   9.264
12824SOL     OW42265   3.979   1.348   9.600
12824SOL    HW142266   3.883   1.349   9.573
12824SOL    HW242267   3.991   1.401   9.684
12825SOL     OW42268   3.799   0.345   9.343
12825SOL    HW142269   3.707   0.317   9.314
12825SOL    HW242270   3.830   0.422   9.287
12826SOL     OW42271   3.796   0.166   9.628
12826SOL    HW142272   3.779   0.249   9.574
12826SOL    HW242273   3.886   0.129   9.606
12827SOL     OW42274   4.949   0.325   9.759
12827SOL    HW142275   5.014   0.251   9.748
12827SOL    HW242276   4.969   0.375   9.843
12828SOL     OW42277   4.807   0.984   9.397
12828SOL    HW142278   4.784   1.037   9.315
12828SOL    HW242279   4.888   0.928   9.378
12829SOL     OW42280   3.803   1.240   9.963
12829SOL    HW142281   3.802   1.193  10.051
12829SOL    HW242282   3.885   1.212   9.912
12830SOL     OW42283   4.152   0.424   9.830
12830SOL    HW142284   4.182   0.352   9.768
12830SOL    HW242285   4.113   0.384   9.913
12831SOL     OW42286   5.076   0.052   9.478
12831SOL    HW142287   5.111   0.011   9.394
12831SOL    HW242288   4.986   0.014   9.498
12832SOL     OW42289   3.763   1.077   9.610
12832SOL    HW142290   3.862   1.066   9.601
12832SOL    HW242291   3.723   0.991   9.642
12833SOL     OW42292   4.599   1.646   9.647
12833SOL    HW142293   4.522   1.611   9.593
12833SOL    HW242294   4.567   1.717   9.709
12834SOL     OW42295   3.954   2.490   0.113
12834SOL    HW142296   3.861   2.488   0.150
12834SOL    HW242297   3.955   2.451   0.021
12835SOL     OW42298   3.949   2.137   0.996
12835SOL    HW142299   3.984   2.120   1.088
12835SOL    HW242300   3.861   2.092   0.984
12836SOL     OW42301   3.743   2.230   0.647
12836SOL    HW142302   3.661   2.273   0.686
12836SOL    HW242303   3.715   2.157   0.584
12837SOL     OW42304   4.293   3.137   1.165
12837SOL    HW142305   4.200   3.130   1.128
12837SOL    HW242306   4.304   3.226   1.209
12838SOL     OW42307   5.279   3.373   0.703
12838SOL    HW142308   5.222   3.357   0.784
12838SOL    HW242309   5.220   3.383   0.623
12839SOL     OW42310   4.859   2.565   0.717
12839SOL    HW142311   4.916   2.643   0.692
12839SOL    HW242312   4.799   2.591   0.793
12840SOL     OW42313   5.479   2.469   0.231
12840SOL    HW142314   5.467   2.456   0.132
12840SOL    HW242315   5.449   2.388   0.280
12841SOL     OW42316   4.492   3.006   1.023
12841SOL    HW142317   4.414   3.023   1.083
12841SOL    HW242318   4.526   3.093   0.987
12842SOL     OW42319   4.574   2.660   1.823
12842SOL    HW142320   4.570   2.736   1.888
12842SOL    HW242321   4.596   2.696   1.732
12843SOL     OW42322   4.409   2.874   0.665
12843SOL    HW142323   4.478   2.858   0.735
12843SOL    HW242324   4.336   2.931   0.703
12844SOL     OW42325   4.410   3.023   1.803
12844SOL    HW142326   4.470   3.102   1.817
12844SOL    HW242327   4.324   3.054   1.762
12845SOL     OW42328   4.059   3.297   1.061
12845SOL    HW142329   3.981   3.266   1.008
12845SOL    HW242330   4.117   3.355   1.004
12846SOL     OW42331   5.184   3.367   1.339
12846SOL    HW142332   5.208   3.461   1.365
12846SOL    HW242333   5.168   3.313   1.421
12847SOL     OW42334   4.162   2.254   1.499
12847SOL    HW142335   4.244   2.198   1.508
12847SOL    HW242336   4.081   2.196   1.503
12848SOL     OW42337   5.327   2.309   0.737
12848SOL    HW142338   5.253   2.355   0.687
12848SOL    HW242339   5.378   2.377   0.790
12849SOL     OW42340   3.955   3.575   0.483
12849SOL    HW142341   3.989   3.652   0.537
12849SOL    HW242342   3.999   3.575   0.393
12850SOL     OW42343   4.851   3.203   1.690
12850SOL    HW142344   4.898   3.203   1.778
12850SOL    HW242345   4.803   3.116   1.679
12851SOL     OW42346   3.954   3.296   0.538
12851SOL    HW142347   3.928   3.392   0.538
12851SOL    HW242348   3.883   3.242   0.583
12852SOL     OW42349   3.964   2.953   0.886
12852SOL    HW142350   3.978   2.869   0.938
12852SOL    HW242351   3.909   3.017   0.941
12853SOL     OW42352   4.344   3.648   1.439
12853SOL    HW142353   4.252   3.631   1.474
12853SOL    HW242354   4.372   3.740   1.465
12854SOL     OW42355   4.330   2.826   0.123
12854SOL    HW142356   4.337   2.910   0.069
12854SOL    HW242357   4.376   2.839   0.211
12855SOL     OW42358   5.318   1.976   1.480
12855SOL    HW142359   5.300   2.043   1.408
12855SOL    HW242360   5.315   2.022   1.569
12856SOL     OW42361   3.846   2.505   0.563
12856SOL    HW142362   3.801   2.417   0.580
12856SOL    HW242363   3.845   2.559   0.647
12857SOL     OW42364   3.751   3.458   0.117
12857SOL    HW142365   3.732   3.362   0.138
12857SOL    HW242366   3.718   3.516   0.192
12858SOL     OW42367   5.413   2.784   0.612
12858SOL    HW142368   5.508   2.755   0.620
12858SOL    HW242369   5.405   2.849   0.537
12859SOL     OW42370   5.365   2.970   0.432
12859SOL    HW142371   5.451   2.972   0.380
12859SOL    HW242372   5.379   3.017   0.520
12860SOL     OW42373   3.837   2.599   1.597
12860SOL    HW142374   3.925   2.586   1.642
12860SOL    HW242375   3.824   2.696   1.575
12861SOL     OW42376   4.337   3.227   0.726
12861SOL    HW142377   4.288   3.140   0.735
12861SOL    HW242378   4.314   3.270   0.639
12862SOL     OW42379   5.017   3.090   1.423
12862SOL    HW142380   5.054   3.017   1.365
12862SOL    HW242381   5.069   3.095   1.508
12863SOL     OW42382   3.921   2.838   1.264
12863SOL    HW142383   4.010   2.793   1.250
12863SOL    HW242384   3.848   2.773   1.245
12864SOL     OW42385   5.249   2.861   0.190
12864SOL    HW142386   5.186   2.785   0.203
12864SOL    HW242387   5.297   2.879   0.276
12865SOL     OW42388   4.911   3.654   1.616
12865SOL    HW142389   4.935   3.714   1.540
12865SOL    HW242390   4.918   3.559   1.586
12866SOL     OW42391   4.041   2.113   1.801
12866SOL    HW142392   4.112   2.184   1.807
12866SOL    HW242393   3.953   2.152   1.829
12867SOL     OW42394   5.190   3.279   0.953
12867SOL    HW142395   5.131   3.285   1.033
12867SOL    HW242396   5.175   3.191   0.907
12868SOL     OW42397   5.391   3.576   0.572
12868SOL    HW142398   5.350   3.553   0.484
12868SOL    HW242399   5.373   3.502   0.637
12869SOL     OW42400   4.322   2.591   0.270
12869SOL    HW142401   4.346   2.660   0.202
12869SOL    HW242402   4.244   2.624   0.324
12870SOL     OW42403   5.005   2.207   0.944
12870SOL    HW142404   4.919   2.157   0.931
12870SOL    HW242405   5.067   2.153   1.000
12871SOL     OW42406   5.300   3.524   0.307
12871SOL    HW142407   5.389   3.570   0.310
12871SOL    HW242408   5.279   3.500   0.212
12872SOL     OW42409   4.531   2.467   1.465
12872SOL    HW142410   4.484   2.464   1.554
12872SOL    HW242411   4.480   2.412   1.399
12873SOL     OW42412   5.118   2.331   1.674
12873SOL    HW142413   5.098   2.374   1.762
12873SOL    HW242414   5.196   2.269   1.683
12874SOL     OW42415   4.697   2.752   1.572
12874SOL    HW142416   4.743   2.668   1.543
12874SOL    HW242417   4.641   2.786   1.497
12875SOL     OW42418   4.715   2.272   1.242
12875SOL    HW142419   4.638   2.306   1.296
12875SOL    HW242420   4.681   2.221   1.163
12876SOL     OW42421   4.765   2.563   0.429
12876SOL    HW142422   4.791   2.559   0.525
12876SOL    HW242423   4.680   2.512   0.415
12877SOL     OW42424   3.800   2.673   0.789
12877SOL    HW142425   3.899   2.661   0.798
12877SOL    HW242426   3.776   2.768   0.810
12878SOL     OW42427   3.854   3.683   1.571
12878SOL    HW142428   3.844   3.668   1.670
12878SOL    HW242429   3.768   3.719   1.535
12879SOL     OW42430   4.589   2.210   0.195
12879SOL    HW142431   4.648   2.273   0.146
12879SOL    HW242432   4.608   2.116   0.166
12880SOL     OW42433   5.443   2.447   1.831
12880SOL    HW142434   5.417   2.536   1.795
12880SOL    HW242435   5.441   2.379   1.758
12881SOL     OW42436   5.086   3.006   0.545
12881SOL    HW142437   5.169   2.977   0.497
12881SOL    HW242438   5.037   3.073   0.489
12882SOL     OW42439   4.274   2.058   0.885
12882SOL    HW142440   4.269   2.053   0.985
12882SOL    HW242441   4.276   2.154   0.856
12883SOL     OW42442   4.732   3.318   0.477
12883SOL    HW142443   4.686   3.390   0.425
12883SOL    HW242444   4.728   3.338   0.575
12884SOL     OW42445   4.075   3.663   0.853
12884SOL    HW142446   4.125   3.577   0.859
12884SOL    HW242447   4.140   3.740   0.850
12885SOL     OW42448   5.519   2.928   0.873
12885SOL    HW142449   5.457   2.913   0.797
12885SOL    HW242450   5.467   2.939   0.958
12886SOL     OW42451   4.951   3.412   1.506
12886SOL    HW142452   4.957   3.335   1.570
12886SOL    HW242453   4.899   3.386   1.426
12887SOL     OW42454   4.045   2.805   0.242
12887SOL    HW142455   4.127   2.844   0.200
12887SOL    HW242456   4.018   2.723   0.193
12888SOL     OW42457   5.182   2.597   0.728
12888SOL    HW142458   5.177   2.532   0.803
12888SOL    HW242459   5.262   2.656   0.741
12889SOL     OW42460   4.185   3.128   1.727
12889SOL    HW142461   4.135   3.129   1.641
12889SOL    HW242462   4.122   3.110   1.803
12890SOL     OW42463   4.835   3.638   0.237
12890SOL    HW142464   4.775   3.576   0.287
12890SOL    HW242465   4.866   3.594   0.152
12891SOL     OW42466   3.926   2.147   1.498
12891SOL    HW142467   3.846   2.207   1.485
12891SOL    HW242468   3.916   2.098   1.584
12892SOL     OW42469   5.356   3.239   0.081
12892SOL    HW142470   5.324   3.333   0.071
12892SOL    HW242471   5.280   3.176   0.069
12893SOL     OW42472   4.188   3.605   0.323
12893SOL    HW142473   4.221   3.644   0.409
12893SOL    HW242474   4.264   3.598   0.258
12894SOL     OW42475   5.124   1.969   0.426
12894SOL    HW142476   5.100   1.932   0.336
12894SOL    HW242477   5.223   1.985   0.430
12895SOL     OW42478   3.973   3.647   1.241
12895SOL    HW142479   4.030   3.582   1.291
12895SOL    HW242480   3.957   3.614   1.148
12896SOL     OW42481   4.664   3.560   0.904
12896SOL    HW142482   4.744   3.503   0.925
12896SOL    HW242483   4.615   3.520   0.827
12897SOL     OW42484   4.106   2.562   0.480
12897SOL    HW142485   4.151   2.472   0.477
12897SOL    HW242486   4.012   2.551   0.513
12898SOL     OW42487   5.271   2.084   1.729
12898SOL    HW142488   5.266   2.121   1.821
12898SOL    HW242489   5.199   2.015   1.717
12899SOL     OW42490   4.505   2.126   1.749
12899SOL    HW142491   4.572   2.065   1.792
12899SOL    HW242492   4.432   2.145   1.814
12900SOL     OW42493   4.612   3.376   1.195
12900SOL    HW142494   4.589   3.351   1.101
12900SOL    HW242495   4.673   3.307   1.234
12901SOL     OW42496   5.075   2.452   1.433
12901SOL    HW142497   5.103   2.409   1.518
12901SOL    HW242498   5.100   2.548   1.434
12902SOL     OW42499   4.527   3.264   0.924
12902SOL    HW142500   4.617   3.278   0.882
12902SOL    HW242501   4.456   3.266   0.853
12903SOL     OW42502   4.646   2.365   0.899
12903SOL    HW142503   4.621   2.356   0.803
12903SOL    HW242504   4.694   2.283   0.930
12904SOL     OW42505   5.158   3.050   0.041
12904SOL    HW142506   5.190   2.974   0.098
12904SOL    HW242507   5.066   3.077   0.071
12905SOL     OW42508   4.800   2.545   1.464
12905SOL    HW142509   4.720   2.484   1.467
12905SOL    HW242510   4.881   2.492   1.440
12906SOL     OW42511   4.951   3.432   0.793
12906SOL    HW142512   4.972   3.506   0.728
12906SOL    HW242513   5.019   3.432   0.866
12907SOL     OW42514   4.183   3.014   0.741
12907SOL    HW142515   4.112   2.987   0.806
12907SOL    HW242516   4.157   2.986   0.648
12908SOL     OW42517   4.995   3.659   0.591
12908SOL    HW142518   5.039   3.723   0.527
12908SOL    HW242519   4.945   3.711   0.661
12909SOL     OW42520   4.756   2.411   0.016
12909SOL    HW142521   4.715   2.493  -0.023
12909SOL    HW242522   4.820   2.437   0.089
12910SOL     OW42523   3.802   2.418   1.386
12910SOL    HW142524   3.894   2.417   1.345
12910SOL    HW242525   3.796   2.492   1.453
12911SOL     OW42526   4.285   2.084   1.147
12911SOL    HW142527   4.323   2.000   1.184
12911SOL    HW242528   4.197   2.103   1.191
12912SOL     OW42529   4.741   1.901   0.753
12912SOL    HW142530   4.669   1.906   0.684
12912SOL    HW242531   4.717   1.832   0.822
12913SOL     OW42532   5.153   3.035   0.867
12913SOL    HW142533   5.098   2.951   0.860
12913SOL    HW242534   5.179   3.064   0.775
12914SOL     OW42535   5.190   2.452   0.992
12914SOL    HW142536   5.160   2.357   0.999
12914SOL    HW242537   5.263   2.468   1.058
12915SOL     OW42538   5.581   2.695   0.377
12915SOL    HW142539   5.623   2.631   0.441
12915SOL    HW242540   5.543   2.644   0.299
12916SOL     OW42541   4.212   3.247   0.174
12916SOL    HW142542   4.125   3.232   0.221
12916SOL    HW242543   4.195   3.273   0.079
12917SOL     OW42544   5.388   3.142   0.657
12917SOL    HW142545   5.487   3.150   0.671
12917SOL    HW242546   5.343   3.226   0.688
12918SOL     OW42547   5.114   2.437   0.078
12918SOL    HW142548   5.060   2.416   0.159
12918SOL    HW242549   5.205   2.396   0.087
12919SOL     OW42550   5.478   3.085   1.588
12919SOL    HW142551   5.569   3.046   1.575
12919SOL    HW242552   5.486   3.181   1.612
12920SOL     OW42553   4.788   3.209   1.340
12920SOL    HW142554   4.708   3.186   1.395
12920SOL    HW242555   4.871   3.183   1.389
12921SOL     OW42556   5.316   3.491   1.625
12921SOL    HW142557   5.343   3.525   1.535
12921SOL    HW242558   5.395   3.453   1.671
12922SOL     OW42559   4.835   3.057   1.100
12922SOL    HW142560   4.795   3.101   1.181
12922SOL    HW242561   4.794   3.094   1.017
12923SOL     OW42562   5.362   2.961   1.079
12923SOL    HW142563   5.367   3.042   1.138
12923SOL    HW242564   5.276   2.963   1.028
12924SOL     OW42565   4.639   1.951   1.402
12924SOL    HW142566   4.664   1.931   1.307
12924SOL    HW242567   4.711   2.007   1.444
12925SOL     OW42568   4.704   2.978   1.719
12925SOL    HW142569   4.605   2.984   1.729
12925SOL    HW242570   4.727   2.898   1.663
12926SOL     OW42571   4.429   2.912   0.368
12926SOL    HW142572   4.415   2.919   0.467
12926SOL    HW242573   4.513   2.861   0.350
12927SOL     OW42574   4.134   2.675   1.251
12927SOL    HW142575   4.220   2.687   1.301
12927SOL    HW242576   4.092   2.588   1.278
12928SOL     OW42577   4.998   2.248   1.262
12928SOL    HW142578   5.019   2.322   1.326
12928SOL    HW242579   4.909   2.265   1.219
12929SOL     OW42580   3.788   3.426   1.331
12929SOL    HW142581   3.742   3.508   1.297
12929SOL    HW242582   3.886   3.445   1.340
12930SOL     OW42583   4.091   2.962   0.501
12930SOL    HW142584   4.084   3.045   0.445
12930SOL    HW242585   4.095   2.882   0.441
12931SOL     OW42586   4.290   2.399   0.865
12931SOL    HW142587   4.302   2.465   0.791
12931SOL    HW242588   4.336   2.433   0.948
12932SOL     OW42589   4.976   3.210   0.388
12932SOL    HW142590   5.026   3.287   0.428
12932SOL    HW242591   4.881   3.212   0.420
12933SOL     OW42592   4.996   3.307   1.142
12933SOL    HW142593   5.043   3.320   1.229
12933SOL    HW242594   4.930   3.233   1.151
12934SOL     OW42595   5.306   2.501   0.472
12934SOL    HW142596   5.275   2.562   0.545
12934SOL    HW242597   5.356   2.553   0.403
12935SOL     OW42598   4.078   3.372   1.329
12935SOL    HW142599   4.057   3.328   1.242
12935SOL    HW242600   4.175   3.398   1.332
12936SOL     OW42601   4.126   2.613   1.598
12936SOL    HW142602   4.194   2.668   1.551
12936SOL    HW242603   4.166   2.525   1.625
12937SOL     OW42604   5.311   2.641   1.670
12937SOL    HW142605   5.219   2.679   1.665
12937SOL    HW242606   5.371   2.688   1.605
12938SOL     OW42607   4.737   1.967   1.770
12938SOL    HW142608   4.743   2.052   1.718
12938SOL    HW242609   4.769   1.891   1.713
12939SOL     OW42610   4.228   1.912   1.740
12939SOL    HW142611   4.186   1.855   1.670
12939SOL    HW242612   4.162   1.981   1.772
12940SOL     OW42613   4.297   2.732   1.029
12940SOL    HW142614   4.341   2.821   1.020
12940SOL    HW242615   4.234   2.732   1.106
12941SOL     OW42616   5.084   2.724   1.045
12941SOL    HW142617   5.009   2.724   0.979
12941SOL    HW242618   5.121   2.632   1.054
12942SOL     OW42619   4.933   2.387   0.275
12942SOL    HW142620   4.946   2.303   0.329
12942SOL    HW242621   4.904   2.461   0.335
12943SOL     OW42622   4.031   2.075   1.231
12943SOL    HW142623   4.008   2.112   1.321
12943SOL    HW242624   4.001   1.980   1.225
12944SOL     OW42625   3.761   3.172   1.282
12944SOL    HW142626   3.814   3.123   1.350
12944SOL    HW242627   3.783   3.270   1.287
12945SOL     OW42628   4.456   2.496   1.064
12945SOL    HW142629   4.515   2.470   0.988
12945SOL    HW242630   4.428   2.592   1.053
12946SOL     OW42631   5.452   2.797   1.854
12946SOL    HW142632   5.406   2.790   1.765
12946SOL    HW242633   5.390   2.841   1.920
12947SOL     OW42634   4.031   1.925   0.618
12947SOL    HW142635   4.020   2.019   0.651
12947SOL    HW242636   4.026   1.862   0.695
12948SOL     OW42637   5.346   2.229   0.374
12948SOL    HW142638   5.348   2.153   0.438
12948SOL    HW242639   5.298   2.306   0.414
12949SOL     OW42640   4.747   2.628   0.966
12949SOL    HW142641   4.762   2.649   1.062
12949SOL    HW242642   4.717   2.533   0.957
12950SOL     OW42643   4.704   3.435   1.700
12950SOL    HW142644   4.684   3.479   1.612
12950SOL    HW242645   4.743   3.344   1.684
12951SOL     OW42646   5.583   3.380   1.605
12951SOL    HW142647   5.597   3.407   1.510
12951SOL    HW242648   5.666   3.402   1.658
12952SOL     OW42649   4.074   2.760   1.804
12952SOL    HW142650   4.150   2.804   1.852
12952SOL    HW242651   4.109   2.713   1.722
12953SOL     OW42652   5.264   2.136   0.125
12953SOL    HW142653   5.203   2.061   0.148
12953SOL    HW242654   5.286   2.188   0.208
12954SOL     OW42655   5.027   2.700   0.042
12954SOL    HW142656   5.061   2.607   0.057
12954SOL    HW242657   5.045   2.727  -0.053
12955SOL     OW42658   4.792   3.195   0.849
12955SOL    HW142659   4.799   3.111   0.794
12955SOL    HW242660   4.854   3.264   0.813
12956SOL     OW42661   4.043   2.672   0.949
12956SOL    HW142662   4.136   2.708   0.954
12956SOL    HW242663   4.037   2.587   1.001
12957SOL     OW42664   4.063   2.371   1.006
12957SOL    HW142665   4.011   2.288   0.989
12957SOL    HW242666   4.140   2.376   0.942
12958SOL     OW42667   4.862   2.242   1.678
12958SOL    HW142668   4.817   2.305   1.742
12958SOL    HW242669   4.955   2.273   1.661
12959SOL     OW42670   4.884   2.069   1.477
12959SOL    HW142671   4.884   2.133   1.554
12959SOL    HW242672   4.912   2.117   1.394
12960SOL     OW42673   3.732   3.188   0.200
12960SOL    HW142674   3.639   3.209   0.169
12960SOL    HW242675   3.742   3.089   0.213
12961SOL     OW42676   3.812   3.663   0.927
12961SOL    HW142677   3.770   3.577   0.900
12961SOL    HW242678   3.906   3.666   0.893
12962SOL     OW42679   4.228   3.430   0.910
12962SOL    HW142680   4.294   3.504   0.919
12962SOL    HW242681   4.272   3.351   0.868
12963SOL     OW42682   4.726   2.658   1.238
12963SOL    HW142683   4.767   2.626   1.324
12963SOL    HW242684   4.630   2.631   1.235
12964SOL     OW42685   3.764   2.406   1.114
12964SOL    HW142686   3.849   2.373   1.073
12964SOL    HW242687   3.777   2.421   1.212
12965SOL     OW42688   3.913   2.382   1.722
12965SOL    HW142689   3.972   2.342   1.652
12965SOL    HW242690   3.855   2.453   1.681
12966SOL     OW42691   5.093   2.812   1.660
12966SOL    HW142692   5.132   2.901   1.680
12966SOL    HW242693   5.103   2.792   1.563
12967SOL     OW42694   5.381   2.466   1.206
12967SOL    HW142695   5.343   2.397   1.268
12967SOL    HW242696   5.463   2.430   1.162
12968SOL     OW42697   3.976   3.426   1.744
12968SOL    HW142698   3.946   3.483   1.820
12968SOL    HW242699   3.969   3.329   1.770
12969SOL     OW42700   4.395   2.326   1.269
12969SOL    HW142701   4.361   2.237   1.239
12969SOL    HW242702   4.421   2.380   1.189
12970SOL     OW42703   4.654   3.540   1.465
12970SOL    HW142704   4.630   3.522   1.370
12970SOL    HW242705   4.684   3.634   1.475
12971SOL     OW42706   4.197   2.362   0.191
12971SOL    HW142707   4.258   2.442   0.195
12971SOL    HW242708   4.102   2.393   0.198
12972SOL     OW42709   3.883   2.999   1.466
12972SOL    HW142710   3.905   2.938   1.542
12972SOL    HW242711   3.893   2.950   1.380
12973SOL     OW42712   5.071   2.921   1.234
12973SOL    HW142713   5.095   2.858   1.160
12973SOL    HW242714   4.981   2.961   1.216
12974SOL     OW42715   5.026   2.717   0.309
12974SOL    HW142716   4.940   2.686   0.351
12974SOL    HW242717   5.022   2.703   0.210
12975SOL     OW42718   5.483   3.609   1.154
12975SOL    HW142719   5.544   3.639   1.081
12975SOL    HW242720   5.445   3.520   1.132
12976SOL     OW42721   4.976   3.593   1.128
12976SOL    HW142722   5.060   3.598   1.074
12976SOL    HW242723   4.953   3.497   1.146
12977SOL     OW42724   3.807   3.120   1.022
12977SOL    HW142725   3.802   3.119   1.122
12977SOL    HW242726   3.724   3.079   0.984
12978SOL     OW42727   4.412   3.524   1.716
12978SOL    HW142728   4.356   3.605   1.725
12978SOL    HW242729   4.464   3.528   1.630
12979SOL     OW42730   4.627   1.948   0.133
12979SOL    HW142731   4.678   1.949   0.047
12979SOL    HW242732   4.683   1.906   0.204
12980SOL     OW42733   5.450   1.997   0.523
12980SOL    HW142734   5.523   1.980   0.456
12980SOL    HW242735   5.419   1.910   0.561
12981SOL     OW42736   5.112   3.435   0.477
12981SOL    HW142737   5.179   3.447   0.403
12981SOL    HW242738   5.072   3.524   0.500
12982SOL     OW42739   3.854   3.656   1.851
12982SOL    HW142740   3.813   3.582   1.904
12982SOL    HW242741   3.918   3.707   1.909
12983SOL     OW42742   5.004   2.789   0.672
12983SOL    HW142743   5.064   2.708   0.674
12983SOL    HW242744   5.044   2.858   0.612
12984SOL     OW42745   4.554   3.135   1.422
12984SOL    HW142746   4.549   3.168   1.517
12984SOL    HW242747   4.468   3.154   1.376
12985SOL     OW42748   4.396   3.478   0.154
12985SOL    HW142749   4.405   3.488   0.055
12985SOL    HW242750   4.356   3.389   0.175
12986SOL     OW42751   5.374   3.582   1.394
12986SOL    HW142752   5.427   3.592   1.310
12986SOL    HW242753   5.347   3.672   1.428
12987SOL     OW42754   5.565   2.037   0.963
12987SOL    HW142755   5.604   1.952   0.927
12987SOL    HW242756   5.467   2.039   0.944
12988SOL     OW42757   3.987   2.188   0.720
12988SOL    HW142758   3.908   2.239   0.686
12988SOL    HW242759   3.978   2.173   0.818
12989SOL     OW42760   4.918   3.474   0.031
12989SOL    HW142761   4.924   3.381   0.068
12989SOL    HW242762   4.859   3.474  -0.049
12990SOL     OW42763   4.546   2.864   1.372
12990SOL    HW142764   4.586   2.863   1.280
12990SOL    HW242765   4.556   2.956   1.412
12991SOL     OW42766   4.640   2.772   0.291
12991SOL    HW142767   4.703   2.810   0.223
12991SOL    HW242768   4.680   2.689   0.330
12992SOL     OW42769   5.228   3.469   0.044
12992SOL    HW142770   5.136   3.506   0.051
12992SOL    HW242771   5.266   3.489  -0.046
12993SOL     OW42772   4.096   3.150   1.490
12993SOL    HW142773   4.083   3.243   1.456
12993SOL    HW242774   4.012   3.098   1.477
12994SOL     OW42775   5.338   3.154   1.289
12994SOL    HW142776   5.398   3.157   1.369
12994SOL    HW242777   5.263   3.218   1.302
12995SOL     OW42778   4.763   2.960   0.696
12995SOL    HW142779   4.693   2.913   0.750
12995SOL    HW242780   4.822   2.892   0.653
12996SOL     OW42781   4.738   2.098   0.971
12996SOL    HW142782   4.730   2.062   0.878
12996SOL    HW242783   4.736   2.022   1.036
12997SOL     OW42784   4.314   3.349   0.491
12997SOL    HW142785   4.356   3.291   0.421
12997SOL    HW242786   4.270   3.428   0.447
12998SOL     OW42787   5.433   2.247   1.381
12998SOL    HW142788   5.506   2.316   1.385
12998SOL    HW242789   5.461   2.172   1.322
12999SOL     OW42790   3.979   3.210   0.290
12999SOL    HW142791   3.883   3.211   0.263
12999SOL    HW242792   3.991   3.263   0.374
13000SOL     OW42793   3.829   2.875   1.726
13000SOL    HW142794   3.752   2.842   1.780
13000SOL    HW242795   3.914   2.845   1.768
13001SOL     OW42796   4.396   2.065   1.489
13001SOL    HW142797   4.486   2.049   1.449
13001SOL    HW242798   4.404   2.070   1.588
13002SOL     OW42799   3.799   2.207   0.033
13002SOL    HW142800   3.707   2.179   0.004
13002SOL    HW242801   3.830   2.284  -0.023
13003SOL     OW42802   5.164   2.718   1.398
13003SOL    HW142803   5.107   2.770   1.335
13003SOL    HW242804   5.260   2.730   1.374
13004SOL     OW42805   3.796   2.028   0.318
13004SOL    HW142806   3.779   2.111   0.264
13004SOL    HW242807   3.886   1.991   0.296
13005SOL     OW42808   4.907   3.197   0.119
13005SOL    HW142809   4.808   3.186   0.121
13005SOL    HW242810   4.941   3.212   0.212
13006SOL     OW42811   4.337   2.704   1.431
13006SOL    HW142812   4.393   2.785   1.414
13006SOL    HW242813   4.396   2.624   1.434
13007SOL     OW42814   5.217   3.629   0.959
13007SOL    HW142815   5.250   3.693   0.890
13007SOL    HW242816   5.283   3.623   1.034
13008SOL     OW42817   4.440   2.427   1.708
13008SOL    HW142818   4.459   2.492   1.782
13008SOL    HW242819   4.500   2.347   1.717
13009SOL     OW42820   5.174   3.082   1.633
13009SOL    HW142821   5.165   3.072   1.732
13009SOL    HW242822   5.270   3.075   1.607
13010SOL     OW42823   4.114   3.603   1.560
13010SOL    HW142824   4.023   3.644   1.558
13010SOL    HW242825   4.107   3.509   1.592
13011SOL     OW42826   5.398   2.745   1.254
13011SOL    HW142827   5.371   2.656   1.217
13011SOL    HW242828   5.399   2.813   1.181
13012SOL     OW42829   4.949   2.187   0.449
13012SOL    HW142830   5.014   2.113   0.438
13012SOL    HW242831   4.969   2.237   0.533
13013SOL     OW42832   4.318   2.607   0.652
13013SOL    HW142833   4.368   2.692   0.633
13013SOL    HW242834   4.230   2.609   0.604
13014SOL     OW42835   5.501   2.204   1.642
13014SOL    HW142836   5.484   2.235   1.548
13014SOL    HW242837   5.417   2.167   1.680
13015SOL     OW42838   5.454   2.796   1.517
13015SOL    HW142839   5.492   2.887   1.532
13015SOL    HW242840   5.446   2.779   1.418
13016SOL     OW42841   4.583   3.236   0.016
13016SOL    HW142842   4.537   3.251   0.104
13016SOL    HW242843   4.627   3.321  -0.014
13017SOL     OW42844   4.385   3.652   0.953
13017SOL    HW142845   4.339   3.740   0.940
13017SOL    HW242846   4.484   3.664   0.946
13018SOL     OW42847   4.583   2.818   0.861
13018SOL    HW142848   4.637   2.749   0.909
13018SOL    HW242849   4.551   2.887   0.927
13019SOL     OW42850   4.807   2.846   0.087
13019SOL    HW142851   4.784   2.899   0.005
13019SOL    HW242852   4.888   2.790   0.068
13020SOL     OW42853   5.585   3.431   0.851
13020SOL    HW142854   5.514   3.419   0.781
13020SOL    HW242855   5.586   3.352   0.911
13021SOL     OW42856   3.945   3.176   1.844
13021SOL    HW142857   3.880   3.103   1.823
13021SOL    HW242858   3.949   3.190   1.942
13022SOL     OW42859   3.803   3.102   0.653
13022SOL    HW142860   3.802   3.055   0.741
13022SOL    HW242861   3.885   3.074   0.602
13023SOL     OW42862   4.396   3.253   1.624
13023SOL    HW142863   4.318   3.203   1.662
13023SOL    HW242864   4.393   3.348   1.655
13024SOL     OW42865   5.548   2.054   1.227
13024SOL    HW142866   5.544   1.964   1.271
13024SOL    HW242867   5.551   2.043   1.128
13025SOL     OW42868   4.152   2.286   0.520
13025SOL    HW142869   4.182   2.214   0.458
13025SOL    HW242870   4.113   2.246   0.603
13026SOL     OW42871   5.429   3.349   1.104
13026SOL    HW142872   5.336   3.324   1.077
13026SOL    HW242873   5.455   3.299   1.186
13027SOL     OW42874   4.041   2.409   1.280
13027SOL    HW142875   4.079   2.350   1.352
13027SOL    HW242876   4.081   2.383   1.192
13028SOL     OW42877   4.536   3.448   0.687
13028SOL    HW142878   4.568   3.458   0.593
13028SOL    HW242879   4.457   3.386   0.689
13029SOL     OW42880   5.148   2.076   1.112
13029SOL    HW142881   5.200   2.011   1.167
13029SOL    HW242882   5.099   2.139   1.173
13030SOL     OW42883   4.725   1.896   1.154
13030SOL    HW142884   4.662   1.824   1.123
13030SOL    HW242885   4.818   1.860   1.154
13031SOL     OW42886   4.494   3.192   0.301
13031SOL    HW142887   4.448   3.105   0.318
13031SOL    HW242888   4.585   3.189   0.342
13032SOL     OW42889   4.342   3.429   1.284
13032SOL    HW142890   4.337   3.511   1.341
13032SOL    HW242891   4.431   3.426   1.239
13033SOL     OW42892   5.076   1.914   0.168
13033SOL    HW142893   5.111   1.873   0.084
13033SOL    HW242894   4.986   1.876   0.188
13034SOL     OW42895   5.024   2.315   0.691
13034SOL    HW142896   4.965   2.395   0.695
13034SOL    HW242897   5.039   2.280   0.784
13035SOL     OW42898   5.317   2.083   0.882
13035SOL    HW142899   5.233   2.082   0.936
13035SOL    HW242900   5.319   2.166   0.826
13036SOL     OW42901   3.763   2.939   0.300
13036SOL    HW142902   3.862   2.928   0.291
13036SOL    HW242903   3.723   2.853   0.332
13037SOL     OW42904   4.599   3.508   0.337
13037SOL    HW142905   4.522   3.473   0.283
13037SOL    HW242906   4.567   3.579   0.399
13038SOL     OW42907   3.954   2.490   1.975
13038SOL    HW142908   3.861   2.488   2.012
13038SOL    HW242909   3.955   2.451   1.883
13039SOL     OW42910   3.949   2.137   2.858
13039SOL    HW142911   3.984   2.120   2.950
13039SOL    HW242912   3.861   2.092   2.846
13040SOL     OW42913   3.743   2.230   2.509
13040SOL    HW142914   3.661   2.273   2.548
13040SOL    HW242915   3.715   2.157   2.446
13041SOL     OW42916   4.293   3.137   3.027
13041SOL    HW142917   4.200   3.130   2.990
13041SOL    HW242918   4.304   3.226   3.071
13042SOL     OW42919   5.279   3.373   2.565
13042SOL    HW142920   5.222   3.357   2.646
13042SOL    HW242921   5.220   3.383   2.485
13043SOL     OW42922   4.859   2.565   2.579
13043SOL    HW142923   4.916   2.643   2.554
13043SOL    HW242924   4.799   2.591   2.655
13044SOL     OW42925   5.479   2.469   2.093
13044SOL    HW142926   5.467   2.456   1.994
13044SOL    HW242927   5.449   2.388   2.142
13045SOL     OW42928   4.492   3.006   2.885
13045SOL    HW142929   4.414   3.023   2.945
13045SOL    HW242930   4.526   3.093   2.849
13046SOL     OW42931   4.574   2.660   3.685
13046SOL    HW142932   4.570   2.736   3.750
13046SOL    HW242933   4.596   2.696   3.594
13047SOL     OW42934   4.409   2.874   2.527
13047SOL    HW142935   4.478   2.858   2.597
13047SOL    HW242936   4.336   2.931   2.565
13048SOL     OW42937   4.410   3.023   3.665
13048SOL    HW142938   4.470   3.102   3.679
13048SOL    HW242939   4.324   3.054   3.624
13049SOL     OW42940   4.059   3.297   2.923
13049SOL    HW142941   3.981   3.266   2.870
13049SOL    HW242942   4.117   3.355   2.866
13050SOL     OW42943   5.184   3.367   3.201
13050SOL    HW142944   5.208   3.461   3.227
13050SOL    HW242945   5.168   3.313   3.283
13051SOL     OW42946   4.162   2.254   3.361
13051SOL    HW142947   4.244   2.198   3.370
13051SOL    HW242948   4.081   2.196   3.365
13052SOL     OW42949   5.327   2.309   2.599
13052SOL    HW142950   5.253   2.355   2.549
13052SOL    HW242951   5.378   2.377   2.652
13053SOL     OW42952   3.955   3.575   2.345
13053SOL    HW142953   3.989   3.652   2.399
13053SOL    HW242954   3.999   3.575   2.255
13054SOL     OW42955   4.851   3.203   3.552
13054SOL    HW142956   4.898   3.203   3.640
13054SOL    HW242957   4.803   3.116   3.541
13055SOL     OW42958   3.954   3.296   2.400
13055SOL    HW142959   3.928   3.392   2.400
13055SOL    HW242960   3.883   3.242   2.445
13056SOL     OW42961   3.964   2.953   2.748
13056SOL    HW142962   3.978   2.869   2.800
13056SOL    HW242963   3.909   3.017   2.803
13057SOL     OW42964   4.344   3.648   3.301
13057SOL    HW142965   4.252   3.631   3.336
13057SOL    HW242966   4.372   3.740   3.327
13058SOL     OW42967   4.330   2.826   1.985
13058SOL    HW142968   4.337   2.910   1.931
13058SOL    HW242969   4.376   2.839   2.073
13059SOL     OW42970   5.318   1.976   3.342
13059SOL    HW142971   5.300   2.043   3.270
13059SOL    HW242972   5.315   2.022   3.431
13060SOL     OW42973   3.846   2.505   2.425
13060SOL    HW142974   3.801   2.417   2.442
13060SOL    HW242975   3.845   2.559   2.509
13061SOL     OW42976   5.566   3.629   2.221
13061SOL    HW142977   5.620   3.600   2.301
13061SOL    HW242978   5.596   3.719   2.192
13062SOL     OW42979   3.751   3.458   1.979
13062SOL    HW142980   3.732   3.362   2.000
13062SOL    HW242981   3.718   3.516   2.054
13063SOL     OW42982   5.413   2.784   2.474
13063SOL    HW142983   5.508   2.755   2.482
13063SOL    HW242984   5.405   2.849   2.399
13064SOL     OW42985   5.365   2.970   2.294
13064SOL    HW142986   5.451   2.972   2.242
13064SOL    HW242987   5.379   3.017   2.382
13065SOL     OW42988   3.837   2.599   3.459
13065SOL    HW142989   3.925   2.586   3.504
13065SOL    HW242990   3.824   2.696   3.437
13066SOL     OW42991   4.337   3.227   2.588
13066SOL    HW142992   4.288   3.140   2.597
13066SOL    HW242993   4.314   3.270   2.501
13067SOL     OW42994   5.017   3.090   3.285
13067SOL    HW142995   5.054   3.017   3.227
13067SOL    HW242996   5.069   3.095   3.370
13068SOL     OW42997   4.533   1.866   2.364
13068SOL    HW142998   4.573   1.957   2.355
13068SOL    HW242999   4.433   1.874   2.370
13069SOL     OW43000   3.921   2.838   3.126
13069SOL    HW143001   4.010   2.793   3.112
13069SOL    HW243002   3.848   2.773   3.107
13070SOL     OW43003   5.249   2.861   2.052
13070SOL    HW143004   5.186   2.785   2.065
13070SOL    HW243005   5.297   2.879   2.138
13071SOL     OW43006   4.911   3.654   3.478
13071SOL    HW143007   4.935   3.714   3.402
13071SOL    HW243008   4.918   3.559   3.448
13072SOL     OW43009   4.041   2.113   3.663
13072SOL    HW143010   4.112   2.184   3.669
13072SOL    HW243011   3.953   2.152   3.691
13073SOL     OW43012   5.190   3.279   2.815
13073SOL    HW143013   5.131   3.285   2.895
13073SOL    HW243014   5.175   3.191   2.769
13074SOL     OW43015   5.391   3.576   2.434
13074SOL    HW143016   5.350   3.553   2.346
13074SOL    HW243017   5.373   3.502   2.499
13075SOL     OW43018   4.322   2.591   2.132
13075SOL    HW143019   4.346   2.660   2.064
13075SOL    HW243020   4.244   2.624   2.186
13076SOL     OW43021   5.005   2.207   2.806
13076SOL    HW143022   4.919   2.157   2.793
13076SOL    HW243023   5.067   2.153   2.862
13077SOL     OW43024   5.300   3.524   2.169
13077SOL    HW143025   5.389   3.570   2.172
13077SOL    HW243026   5.279   3.500   2.074
13078SOL     OW43027   4.531   2.467   3.327
13078SOL    HW143028   4.484   2.464   3.416
13078SOL    HW243029   4.480   2.412   3.261
13079SOL     OW43030   5.118   2.331   3.536
13079SOL    HW143031   5.098   2.374   3.624
13079SOL    HW243032   5.196   2.269   3.545
13080SOL     OW43033   4.697   2.752   3.434
13080SOL    HW143034   4.743   2.668   3.405
13080SOL    HW243035   4.641   2.786   3.359
13081SOL     OW43036   4.715   2.272   3.104
13081SOL    HW143037   4.638   2.306   3.158
13081SOL    HW243038   4.681   2.221   3.025
13082SOL     OW43039   4.765   2.563   2.291
13082SOL    HW143040   4.791   2.559   2.387
13082SOL    HW243041   4.680   2.512   2.277
13083SOL     OW43042   3.800   2.673   2.651
13083SOL    HW143043   3.899   2.661   2.660
13083SOL    HW243044   3.776   2.768   2.672
13084SOL     OW43045   3.854   3.683   3.433
13084SOL    HW143046   3.844   3.668   3.532
13084SOL    HW243047   3.768   3.719   3.397
13085SOL     OW43048   4.589   2.210   2.057
13085SOL    HW143049   4.648   2.273   2.008
13085SOL    HW243050   4.608   2.116   2.028
13086SOL     OW43051   5.443   2.447   3.693
13086SOL    HW143052   5.417   2.536   3.657
13086SOL    HW243053   5.441   2.379   3.620
13087SOL     OW43054   5.086   3.006   2.407
13087SOL    HW143055   5.169   2.977   2.359
13087SOL    HW243056   5.037   3.073   2.351
13088SOL     OW43057   4.732   3.318   2.339
13088SOL    HW143058   4.686   3.390   2.287
13088SOL    HW243059   4.728   3.338   2.437
13089SOL     OW43060   4.075   3.663   2.715
13089SOL    HW143061   4.125   3.577   2.721
13089SOL    HW243062   4.140   3.740   2.712
13090SOL     OW43063   5.519   2.928   2.735
13090SOL    HW143064   5.457   2.913   2.659
13090SOL    HW243065   5.467   2.939   2.820
13091SOL     OW43066   4.951   3.412   3.368
13091SOL    HW143067   4.957   3.335   3.432
13091SOL    HW243068   4.899   3.386   3.288
13092SOL     OW43069   4.045   2.805   2.104
13092SOL    HW143070   4.127   2.844   2.062
13092SOL    HW243071   4.018   2.723   2.055
13093SOL     OW43072   5.182   2.597   2.590
13093SOL    HW143073   5.177   2.532   2.665
13093SOL    HW243074   5.262   2.656   2.603
13094SOL     OW43075   4.185   3.128   3.589
13094SOL    HW143076   4.135   3.129   3.503
13094SOL    HW243077   4.122   3.110   3.665
13095SOL     OW43078   4.835   3.638   2.099
13095SOL    HW143079   4.775   3.576   2.149
13095SOL    HW243080   4.866   3.594   2.014
13096SOL     OW43081   3.926   2.147   3.360
13096SOL    HW143082   3.846   2.207   3.347
13096SOL    HW243083   3.916   2.098   3.446
13097SOL     OW43084   5.356   3.239   1.943
13097SOL    HW143085   5.324   3.333   1.933
13097SOL    HW243086   5.280   3.176   1.931
13098SOL     OW43087   4.188   3.605   2.185
13098SOL    HW143088   4.221   3.644   2.271
13098SOL    HW243089   4.264   3.598   2.120
13099SOL     OW43090   5.124   1.969   2.288
13099SOL    HW143091   5.100   1.932   2.198
13099SOL    HW243092   5.223   1.985   2.292
13100SOL     OW43093   3.973   3.647   3.103
13100SOL    HW143094   4.030   3.582   3.153
13100SOL    HW243095   3.957   3.614   3.010
13101SOL     OW43096   4.664   3.560   2.766
13101SOL    HW143097   4.744   3.503   2.787
13101SOL    HW243098   4.615   3.520   2.689
13102SOL     OW43099   4.106   2.562   2.342
13102SOL    HW143100   4.151   2.472   2.339
13102SOL    HW243101   4.012   2.551   2.375
13103SOL     OW43102   5.271   2.084   3.591
13103SOL    HW143103   5.266   2.121   3.683
13103SOL    HW243104   5.199   2.015   3.579
13104SOL     OW43105   4.338   1.984   1.979
13104SOL    HW143106   4.436   1.962   1.986
13104SOL    HW243107   4.307   1.967   1.886
13105SOL     OW43108   4.505   2.126   3.611
13105SOL    HW143109   4.572   2.065   3.654
13105SOL    HW243110   4.432   2.145   3.676
13106SOL     OW43111   4.612   3.376   3.057
13106SOL    HW143112   4.589   3.351   2.963
13106SOL    HW243113   4.673   3.307   3.096
13107SOL     OW43114   5.075   2.452   3.295
13107SOL    HW143115   5.103   2.409   3.380
13107SOL    HW243116   5.100   2.548   3.296
13108SOL     OW43117   4.527   3.264   2.786
13108SOL    HW143118   4.617   3.278   2.744
13108SOL    HW243119   4.456   3.266   2.715
13109SOL     OW43120   4.646   2.365   2.761
13109SOL    HW143121   4.621   2.356   2.665
13109SOL    HW243122   4.694   2.283   2.792
13110SOL     OW43123   4.263   1.926   2.374
13110SOL    HW143124   4.182   1.927   2.432
13110SOL    HW243125   4.266   2.009   2.319
13111SOL     OW43126   5.158   3.050   1.903
13111SOL    HW143127   5.190   2.974   1.960
13111SOL    HW243128   5.066   3.077   1.933
13112SOL     OW43129   4.021   1.897   2.033
13112SOL    HW143130   4.070   1.981   2.012
13112SOL    HW243131   4.083   1.832   2.078
13113SOL     OW43132   4.659   2.098   2.342
13113SOL    HW143133   4.611   2.139   2.264
13113SOL    HW243134   4.758   2.096   2.323
13114SOL     OW43135   4.800   2.545   3.326
13114SOL    HW143136   4.720   2.484   3.329
13114SOL    HW243137   4.881   2.492   3.302
13115SOL     OW43138   4.951   3.432   2.655
13115SOL    HW143139   4.972   3.506   2.590
13115SOL    HW243140   5.019   3.432   2.728
13116SOL     OW43141   4.183   3.014   2.603
13116SOL    HW143142   4.112   2.987   2.668
13116SOL    HW243143   4.157   2.986   2.510
13117SOL     OW43144   4.995   3.659   2.453
13117SOL    HW143145   5.039   3.723   2.389
13117SOL    HW243146   4.945   3.711   2.523
13118SOL     OW43147   4.756   2.411   1.878
13118SOL    HW143148   4.715   2.493   1.839
13118SOL    HW243149   4.820   2.437   1.951
13119SOL     OW43150   3.802   2.418   3.248
13119SOL    HW143151   3.894   2.417   3.207
13119SOL    HW243152   3.796   2.492   3.315
13120SOL     OW43153   4.285   2.084   3.009
13120SOL    HW143154   4.323   2.000   3.046
13120SOL    HW243155   4.197   2.103   3.053
13121SOL     OW43156   4.590   2.316   2.504
13121SOL    HW143157   4.558   2.388   2.442
13121SOL    HW243158   4.614   2.235   2.451
13122SOL     OW43159   4.741   1.901   2.615
13122SOL    HW143160   4.669   1.906   2.546
13122SOL    HW243161   4.717   1.832   2.684
13123SOL     OW43162   5.153   3.035   2.729
13123SOL    HW143163   5.098   2.951   2.722
13123SOL    HW243164   5.179   3.064   2.637
13124SOL     OW43165   5.190   2.452   2.854
13124SOL    HW143166   5.160   2.357   2.861
13124SOL    HW243167   5.263   2.468   2.920
13125SOL     OW43168   5.581   2.695   2.239
13125SOL    HW143169   5.623   2.631   2.303
13125SOL    HW243170   5.543   2.644   2.161
13126SOL     OW43171   4.212   3.247   2.036
13126SOL    HW143172   4.125   3.232   2.083
13126SOL    HW243173   4.195   3.273   1.941
13127SOL     OW43174   5.388   3.142   2.519
13127SOL    HW143175   5.487   3.150   2.533
13127SOL    HW243176   5.343   3.226   2.550
13128SOL     OW43177   5.114   2.437   1.940
13128SOL    HW143178   5.060   2.416   2.021
13128SOL    HW243179   5.205   2.396   1.949
13129SOL     OW43180   4.251   2.118   2.190
13129SOL    HW143181   4.278   2.059   2.115
13129SOL    HW243182   4.251   2.213   2.159
13130SOL     OW43183   5.478   3.085   3.450
13130SOL    HW143184   5.569   3.046   3.437
13130SOL    HW243185   5.486   3.181   3.474
13131SOL     OW43186   4.788   3.209   3.202
13131SOL    HW143187   4.708   3.186   3.257
13131SOL    HW243188   4.871   3.183   3.251
13132SOL     OW43189   5.316   3.491   3.487
13132SOL    HW143190   5.343   3.525   3.397
13132SOL    HW243191   5.395   3.453   3.533
13133SOL     OW43192   4.835   3.057   2.962
13133SOL    HW143193   4.795   3.101   3.043
13133SOL    HW243194   4.794   3.094   2.879
13134SOL     OW43195   5.362   2.961   2.941
13134SOL    HW143196   5.367   3.042   3.000
13134SOL    HW243197   5.276   2.963   2.890
13135SOL     OW43198   4.639   1.951   3.264
13135SOL    HW143199   4.664   1.931   3.169
13135SOL    HW243200   4.711   2.007   3.306
13136SOL     OW43201   4.704   2.978   3.581
13136SOL    HW143202   4.605   2.984   3.591
13136SOL    HW243203   4.727   2.898   3.525
13137SOL     OW43204   4.429   2.912   2.230
13137SOL    HW143205   4.415   2.919   2.329
13137SOL    HW243206   4.513   2.861   2.212
13138SOL     OW43207   4.134   2.675   3.113
13138SOL    HW143208   4.220   2.687   3.163
13138SOL    HW243209   4.092   2.588   3.140
13139SOL     OW43210   4.998   2.248   3.124
13139SOL    HW143211   5.019   2.322   3.188
13139SOL    HW243212   4.909   2.265   3.081
13140SOL     OW43213   3.788   3.426   3.193
13140SOL    HW143214   3.742   3.508   3.159
13140SOL    HW243215   3.886   3.445   3.202
13141SOL     OW43216   4.091   2.962   2.363
13141SOL    HW143217   4.084   3.045   2.307
13141SOL    HW243218   4.095   2.882   2.303
13142SOL     OW43219   4.290   2.399   2.727
13142SOL    HW143220   4.302   2.465   2.653
13142SOL    HW243221   4.336   2.433   2.810
13143SOL     OW43222   4.976   3.210   2.250
13143SOL    HW143223   5.026   3.287   2.290
13143SOL    HW243224   4.881   3.212   2.282
13144SOL     OW43225   4.996   3.307   3.004
13144SOL    HW143226   5.043   3.320   3.091
13144SOL    HW243227   4.930   3.233   3.013
13145SOL     OW43228   5.306   2.501   2.334
13145SOL    HW143229   5.275   2.562   2.407
13145SOL    HW243230   5.356   2.553   2.265
13146SOL     OW43231   4.078   3.372   3.191
13146SOL    HW143232   4.057   3.328   3.104
13146SOL    HW243233   4.175   3.398   3.194
13147SOL     OW43234   4.126   2.613   3.460
13147SOL    HW143235   4.194   2.668   3.413
13147SOL    HW243236   4.166   2.525   3.487
13148SOL     OW43237   5.311   2.641   3.532
13148SOL    HW143238   5.219   2.679   3.527
13148SOL    HW243239   5.371   2.688   3.467
13149SOL     OW43240   4.737   1.967   3.632
13149SOL    HW143241   4.743   2.052   3.580
13149SOL    HW243242   4.769   1.891   3.575
13150SOL     OW43243   4.228   1.912   3.602
13150SOL    HW143244   4.186   1.855   3.532
13150SOL    HW243245   4.162   1.981   3.634
13151SOL     OW43246   4.297   2.732   2.891
13151SOL    HW143247   4.341   2.821   2.882
13151SOL    HW243248   4.234   2.732   2.968
13152SOL     OW43249   5.084   2.724   2.907
13152SOL    HW143250   5.009   2.724   2.841
13152SOL    HW243251   5.121   2.632   2.916
13153SOL     OW43252   4.933   2.387   2.137
13153SOL    HW143253   4.946   2.303   2.191
13153SOL    HW243254   4.904   2.461   2.197
13154SOL     OW43255   4.031   2.075   3.093
13154SOL    HW143256   4.008   2.112   3.183
13154SOL    HW243257   4.001   1.980   3.087
13155SOL     OW43258   3.761   3.172   3.144
13155SOL    HW143259   3.814   3.123   3.212
13155SOL    HW243260   3.783   3.270   3.149
13156SOL     OW43261   4.456   2.496   2.926
13156SOL    HW143262   4.515   2.470   2.850
13156SOL    HW243263   4.428   2.592   2.915
13157SOL     OW43264   5.452   2.797   3.716
13157SOL    HW143265   5.406   2.790   3.627
13157SOL    HW243266   5.390   2.841   3.782
13158SOL     OW43267   4.031   1.925   2.480
13158SOL    HW143268   4.020   2.019   2.513
13158SOL    HW243269   4.026   1.862   2.557
13159SOL     OW43270   5.346   2.229   2.236
13159SOL    HW143271   5.348   2.153   2.300
13159SOL    HW243272   5.298   2.306   2.276
13160SOL     OW43273   4.747   2.628   2.828
13160SOL    HW143274   4.762   2.649   2.924
13160SOL    HW243275   4.717   2.533   2.819
13161SOL     OW43276   4.704   3.435   3.562
13161SOL    HW143277   4.684   3.479   3.474
13161SOL    HW243278   4.743   3.344   3.546
13162SOL     OW43279   5.583   3.380   3.467
13162SOL    HW143280   5.597   3.407   3.372
13162SOL    HW243281   5.666   3.402   3.520
13163SOL     OW43282   4.074   2.760   3.666
13163SOL    HW143283   4.150   2.804   3.714
13163SOL    HW243284   4.109   2.713   3.584
13164SOL     OW43285   5.264   2.136   1.987
13164SOL    HW143286   5.203   2.061   2.010
13164SOL    HW243287   5.286   2.188   2.070
13165SOL     OW43288   5.027   2.700   1.904
13165SOL    HW143289   5.061   2.607   1.919
13165SOL    HW243290   5.045   2.727   1.809
13166SOL     OW43291   4.792   3.195   2.711
13166SOL    HW143292   4.799   3.111   2.656
13166SOL    HW243293   4.854   3.264   2.675
13167SOL     OW43294   4.043   2.672   2.811
13167SOL    HW143295   4.136   2.708   2.816
13167SOL    HW243296   4.037   2.587   2.863
13168SOL     OW43297   4.063   2.371   2.868
13168SOL    HW143298   4.011   2.288   2.851
13168SOL    HW243299   4.140   2.376   2.804
13169SOL     OW43300   4.862   2.242   3.540
13169SOL    HW143301   4.817   2.305   3.604
13169SOL    HW243302   4.955   2.273   3.523
13170SOL     OW43303   4.884   2.069   3.339
13170SOL    HW143304   4.884   2.133   3.416
13170SOL    HW243305   4.912   2.117   3.256
13171SOL     OW43306   3.732   3.188   2.062
13171SOL    HW143307   3.639   3.209   2.031
13171SOL    HW243308   3.742   3.089   2.075
13172SOL     OW43309   3.812   3.663   2.789
13172SOL    HW143310   3.770   3.577   2.762
13172SOL    HW243311   3.906   3.666   2.755
13173SOL     OW43312   4.228   3.430   2.772
13173SOL    HW143313   4.294   3.504   2.781
13173SOL    HW243314   4.272   3.351   2.730
13174SOL     OW43315   4.726   2.658   3.100
13174SOL    HW143316   4.767   2.626   3.186
13174SOL    HW243317   4.630   2.631   3.097
13175SOL     OW43318   3.764   2.406   2.976
13175SOL    HW143319   3.849   2.373   2.935
13175SOL    HW243320   3.777   2.421   3.074
13176SOL     OW43321   3.913   2.382   3.584
13176SOL    HW143322   3.972   2.342   3.514
13176SOL    HW243323   3.855   2.453   3.543
13177SOL     OW43324   5.093   2.812   3.522
13177SOL    HW143325   5.132   2.901   3.542
13177SOL    HW243326   5.103   2.792   3.425
13178SOL     OW43327   4.539   2.434   2.187
13178SOL    HW143328   4.546   2.345   2.141
13178SOL    HW243329   4.445   2.468   2.179
13179SOL     OW43330   5.381   2.466   3.068
13179SOL    HW143331   5.343   2.397   3.130
13179SOL    HW243332   5.463   2.430   3.024
13180SOL     OW43333   3.976   3.426   3.606
13180SOL    HW143334   3.946   3.483   3.682
13180SOL    HW243335   3.969   3.329   3.632
13181SOL     OW43336   4.395   2.326   3.131
13181SOL    HW143337   4.361   2.237   3.101
13181SOL    HW243338   4.421   2.380   3.051
13182SOL     OW43339   4.654   3.540   3.327
13182SOL    HW143340   4.630   3.522   3.232
13182SOL    HW243341   4.684   3.634   3.337
13183SOL     OW43342   4.197   2.362   2.053
13183SOL    HW143343   4.258   2.442   2.057
13183SOL    HW243344   4.102   2.393   2.060
13184SOL     OW43345   3.883   2.999   3.328
13184SOL    HW143346   3.905   2.938   3.404
13184SOL    HW243347   3.893   2.950   3.242
13185SOL     OW43348   5.071   2.921   3.096
13185SOL    HW143349   5.095   2.858   3.022
13185SOL    HW243350   4.981   2.961   3.078
13186SOL     OW43351   5.026   2.717   2.171
13186SOL    HW143352   4.940   2.686   2.213
13186SOL    HW243353   5.022   2.703   2.072
13187SOL     OW43354   5.483   3.609   3.016
13187SOL    HW143355   5.544   3.639   2.943
13187SOL    HW243356   5.445   3.520   2.994
13188SOL     OW43357   4.976   3.593   2.990
13188SOL    HW143358   5.060   3.598   2.936
13188SOL    HW243359   4.953   3.497   3.008
13189SOL     OW43360   3.807   3.120   2.884
13189SOL    HW143361   3.802   3.119   2.984
13189SOL    HW243362   3.724   3.079   2.846
13190SOL     OW43363   4.412   3.524   3.578
13190SOL    HW143364   4.356   3.605   3.587
13190SOL    HW243365   4.464   3.528   3.492
13191SOL     OW43366   5.450   1.997   2.385
13191SOL    HW143367   5.523   1.980   2.318
13191SOL    HW243368   5.419   1.910   2.423
13192SOL     OW43369   5.112   3.435   2.339
13192SOL    HW143370   5.179   3.447   2.265
13192SOL    HW243371   5.072   3.524   2.362
13193SOL     OW43372   3.854   3.656   3.713
13193SOL    HW143373   3.813   3.582   3.766
13193SOL    HW243374   3.918   3.707   3.771
13194SOL     OW43375   5.004   2.789   2.534
13194SOL    HW143376   5.064   2.708   2.536
13194SOL    HW243377   5.044   2.858   2.474
13195SOL     OW43378   4.554   3.135   3.284
13195SOL    HW143379   4.549   3.168   3.379
13195SOL    HW243380   4.468   3.154   3.238
13196SOL     OW43381   4.396   3.478   2.016
13196SOL    HW143382   4.405   3.488   1.917
13196SOL    HW243383   4.356   3.389   2.037
13197SOL     OW43384   5.374   3.582   3.256
13197SOL    HW143385   5.427   3.592   3.172
13197SOL    HW243386   5.347   3.672   3.290
13198SOL     OW43387   5.565   2.037   2.825
13198SOL    HW143388   5.604   1.952   2.789
13198SOL    HW243389   5.467   2.039   2.806
13199SOL     OW43390   3.987   2.188   2.582
13199SOL    HW143391   3.908   2.239   2.548
13199SOL    HW243392   3.978   2.173   2.680
13200SOL     OW43393   4.918   3.474   1.893
13200SOL    HW143394   4.924   3.381   1.930
13200SOL    HW243395   4.859   3.474   1.813
13201SOL     OW43396   4.546   2.864   3.234
13201SOL    HW143397   4.586   2.863   3.142
13201SOL    HW243398   4.556   2.956   3.274
13202SOL     OW43399   4.640   2.772   2.153
13202SOL    HW143400   4.703   2.810   2.085
13202SOL    HW243401   4.680   2.689   2.192
13203SOL     OW43402   5.228   3.469   1.906
13203SOL    HW143403   5.136   3.506   1.913
13203SOL    HW243404   5.266   3.489   1.816
13204SOL     OW43405   4.096   3.150   3.352
13204SOL    HW143406   4.083   3.243   3.318
13204SOL    HW243407   4.012   3.098   3.339
13205SOL     OW43408   5.338   3.154   3.151
13205SOL    HW143409   5.398   3.157   3.231
13205SOL    HW243410   5.263   3.218   3.164
13206SOL     OW43411   4.763   2.960   2.558
13206SOL    HW143412   4.693   2.913   2.612
13206SOL    HW243413   4.822   2.892   2.515
13207SOL     OW43414   4.738   2.098   2.833
13207SOL    HW143415   4.730   2.062   2.740
13207SOL    HW243416   4.736   2.022   2.898
13208SOL     OW43417   4.314   3.349   2.353
13208SOL    HW143418   4.356   3.291   2.283
13208SOL    HW243419   4.270   3.428   2.309
13209SOL     OW43420   5.433   2.247   3.243
13209SOL    HW143421   5.506   2.316   3.247
13209SOL    HW243422   5.461   2.172   3.184
13210SOL     OW43423   3.979   3.210   2.152
13210SOL    HW143424   3.883   3.211   2.125
13210SOL    HW243425   3.991   3.263   2.236
13211SOL     OW43426   3.829   2.875   3.588
13211SOL    HW143427   3.752   2.842   3.642
13211SOL    HW243428   3.914   2.845   3.630
13212SOL     OW43429   4.396   2.065   3.351
13212SOL    HW143430   4.486   2.049   3.311
13212SOL    HW243431   4.404   2.070   3.450
13213SOL     OW43432   3.799   2.207   1.895
13213SOL    HW143433   3.707   2.179   1.866
13213SOL    HW243434   3.830   2.284   1.839
13214SOL     OW43435   5.164   2.718   3.260
13214SOL    HW143436   5.107   2.770   3.197
13214SOL    HW243437   5.260   2.730   3.236
13215SOL     OW43438   3.796   2.028   2.180
13215SOL    HW143439   3.779   2.111   2.126
13215SOL    HW243440   3.886   1.991   2.158
13216SOL     OW43441   4.907   3.197   1.981
13216SOL    HW143442   4.808   3.186   1.983
13216SOL    HW243443   4.941   3.212   2.074
13217SOL     OW43444   4.337   2.704   3.293
13217SOL    HW143445   4.393   2.785   3.276
13217SOL    HW243446   4.396   2.624   3.296
13218SOL     OW43447   5.217   3.629   2.821
13218SOL    HW143448   5.250   3.693   2.752
13218SOL    HW243449   5.283   3.623   2.896
13219SOL     OW43450   4.440   2.427   3.570
13219SOL    HW143451   4.459   2.492   3.644
13219SOL    HW243452   4.500   2.347   3.579
13220SOL     OW43453   5.174   3.082   3.495
13220SOL    HW143454   5.165   3.072   3.594
13220SOL    HW243455   5.270   3.075   3.469
13221SOL     OW43456   4.114   3.603   3.422
13221SOL    HW143457   4.023   3.644   3.420
13221SOL    HW243458   4.107   3.509   3.454
13222SOL     OW43459   5.398   2.745   3.116
13222SOL    HW143460   5.371   2.656   3.079
13222SOL    HW243461   5.399   2.813   3.043
13223SOL     OW43462   4.949   2.187   2.311
13223SOL    HW143463   5.014   2.113   2.300
13223SOL    HW243464   4.969   2.237   2.395
13224SOL     OW43465   4.318   2.607   2.514
13224SOL    HW143466   4.368   2.692   2.495
13224SOL    HW243467   4.230   2.609   2.466
13225SOL     OW43468   5.501   2.204   3.504
13225SOL    HW143469   5.484   2.235   3.410
13225SOL    HW243470   5.417   2.167   3.542
13226SOL     OW43471   5.454   2.796   3.379
13226SOL    HW143472   5.492   2.887   3.394
13226SOL    HW243473   5.446   2.779   3.280
13227SOL     OW43474   4.583   3.236   1.878
13227SOL    HW143475   4.537   3.251   1.966
13227SOL    HW243476   4.627   3.321   1.848
13228SOL     OW43477   4.385   3.652   2.815
13228SOL    HW143478   4.339   3.740   2.802
13228SOL    HW243479   4.484   3.664   2.808
13229SOL     OW43480   4.583   2.818   2.723
13229SOL    HW143481   4.637   2.749   2.771
13229SOL    HW243482   4.551   2.887   2.789
13230SOL     OW43483   4.807   2.846   1.949
13230SOL    HW143484   4.784   2.899   1.867
13230SOL    HW243485   4.888   2.790   1.930
13231SOL     OW43486   5.585   3.431   2.713
13231SOL    HW143487   5.514   3.419   2.643
13231SOL    HW243488   5.586   3.352   2.773
13232SOL     OW43489   3.945   3.176   3.706
13232SOL    HW143490   3.880   3.103   3.685
13232SOL    HW243491   3.949   3.190   3.804
13233SOL     OW43492   3.803   3.102   2.515
13233SOL    HW143493   3.802   3.055   2.603
13233SOL    HW243494   3.885   3.074   2.464
13234SOL     OW43495   4.396   3.253   3.486
13234SOL    HW143496   4.318   3.203   3.524
13234SOL    HW243497   4.393   3.348   3.517
13235SOL     OW43498   5.548   2.054   3.089
13235SOL    HW143499   5.544   1.964   3.133
13235SOL    HW243500   5.551   2.043   2.990
13236SOL     OW43501   4.152   2.286   2.382
13236SOL    HW143502   4.182   2.214   2.320
13236SOL    HW243503   4.113   2.246   2.465
13237SOL     OW43504   5.429   3.349   2.966
13237SOL    HW143505   5.336   3.324   2.939
13237SOL    HW243506   5.455   3.299   3.048
13238SOL     OW43507   4.041   2.409   3.142
13238SOL    HW143508   4.079   2.350   3.214
13238SOL    HW243509   4.081   2.383   3.054
13239SOL     OW43510   4.536   3.448   2.549
13239SOL    HW143511   4.568   3.458   2.455
13239SOL    HW243512   4.457   3.386   2.551
13240SOL     OW43513   5.148   2.076   2.974
13240SOL    HW143514   5.200   2.011   3.029
13240SOL    HW243515   5.099   2.139   3.035
13241SOL     OW43516   4.725   1.896   3.016
13241SOL    HW143517   4.662   1.824   2.985
13241SOL    HW243518   4.818   1.860   3.016
13242SOL     OW43519   4.494   3.192   2.163
13242SOL    HW143520   4.448   3.105   2.180
13242SOL    HW243521   4.585   3.189   2.204
13243SOL     OW43522   4.342   3.429   3.146
13243SOL    HW143523   4.337   3.511   3.203
13243SOL    HW243524   4.431   3.426   3.101
13244SOL     OW43525   5.076   1.914   2.030
13244SOL    HW143526   5.111   1.873   1.946
13244SOL    HW243527   4.986   1.876   2.050
13245SOL     OW43528   5.024   2.315   2.553
13245SOL    HW143529   4.965   2.395   2.557
13245SOL    HW243530   5.039   2.280   2.646
13246SOL     OW43531   5.317   2.083   2.744
13246SOL    HW143532   5.233   2.082   2.798
13246SOL    HW243533   5.319   2.166   2.688
13247SOL     OW43534   3.763   2.939   2.162
13247SOL    HW143535   3.862   2.928   2.153
13247SOL    HW243536   3.723   2.853   2.194
13248SOL     OW43537   4.599   3.508   2.199
13248SOL    HW143538   4.522   3.473   2.145
13248SOL    HW243539   4.567   3.579   2.261
13249SOL     OW43540   3.954   2.490   3.837
13249SOL    HW143541   3.861   2.488   3.874
13249SOL    HW243542   3.955   2.451   3.745
13250SOL     OW43543   3.949   2.137   4.720
13250SOL    HW143544   3.984   2.120   4.812
13250SOL    HW243545   3.861   2.092   4.708
13251SOL     OW43546   3.743   2.230   4.371
13251SOL    HW143547   3.661   2.273   4.410
13251SOL    HW243548   3.715   2.157   4.308
13252SOL     OW43549   4.293   3.137   4.889
13252SOL    HW143550   4.200   3.130   4.852
13252SOL    HW243551   4.304   3.226   4.933
13253SOL     OW43552   5.279   3.373   4.427
13253SOL    HW143553   5.222   3.357   4.508
13253SOL    HW243554   5.220   3.383   4.347
13254SOL     OW43555   4.859   2.565   4.441
13254SOL    HW143556   4.916   2.643   4.416
13254SOL    HW243557   4.799   2.591   4.517
13255SOL     OW43558   5.479   2.469   3.955
13255SOL    HW143559   5.467   2.456   3.856
13255SOL    HW243560   5.449   2.388   4.004
13256SOL     OW43561   4.492   3.006   4.747
13256SOL    HW143562   4.414   3.023   4.807
13256SOL    HW243563   4.526   3.093   4.711
13257SOL     OW43564   4.574   2.660   5.547
13257SOL    HW143565   4.570   2.736   5.612
13257SOL    HW243566   4.596   2.696   5.456
13258SOL     OW43567   4.409   2.874   4.389
13258SOL    HW143568   4.478   2.858   4.459
13258SOL    HW243569   4.336   2.931   4.427
13259SOL     OW43570   4.410   3.023   5.527
13259SOL    HW143571   4.470   3.102   5.541
13259SOL    HW243572   4.324   3.054   5.486
13260SOL     OW43573   4.059   3.297   4.785
13260SOL    HW143574   3.981   3.266   4.732
13260SOL    HW243575   4.117   3.355   4.728
13261SOL     OW43576   5.184   3.367   5.063
13261SOL    HW143577   5.208   3.461   5.089
13261SOL    HW243578   5.168   3.313   5.145
13262SOL     OW43579   4.162   2.254   5.223
13262SOL    HW143580   4.244   2.198   5.232
13262SOL    HW243581   4.081   2.196   5.227
13263SOL     OW43582   5.327   2.309   4.461
13263SOL    HW143583   5.253   2.355   4.411
13263SOL    HW243584   5.378   2.377   4.514
13264SOL     OW43585   3.955   3.575   4.207
13264SOL    HW143586   3.989   3.652   4.261
13264SOL    HW243587   3.999   3.575   4.117
13265SOL     OW43588   4.851   3.203   5.414
13265SOL    HW143589   4.898   3.203   5.502
13265SOL    HW243590   4.803   3.116   5.403
13266SOL     OW43591   3.954   3.296   4.262
13266SOL    HW143592   3.928   3.392   4.262
13266SOL    HW243593   3.883   3.242   4.307
13267SOL     OW43594   3.964   2.953   4.610
13267SOL    HW143595   3.978   2.869   4.662
13267SOL    HW243596   3.909   3.017   4.665
13268SOL     OW43597   4.344   3.648   5.163
13268SOL    HW143598   4.252   3.631   5.198
13268SOL    HW243599   4.372   3.740   5.189
13269SOL     OW43600   4.330   2.826   3.847
13269SOL    HW143601   4.337   2.910   3.793
13269SOL    HW243602   4.376   2.839   3.935
13270SOL     OW43603   5.318   1.976   5.204
13270SOL    HW143604   5.300   2.043   5.132
13270SOL    HW243605   5.315   2.022   5.293
13271SOL     OW43606   3.846   2.505   4.287
13271SOL    HW143607   3.801   2.417   4.304
13271SOL    HW243608   3.845   2.559   4.371
13272SOL     OW43609   5.566   3.629   4.083
13272SOL    HW143610   5.620   3.600   4.163
13272SOL    HW243611   5.596   3.719   4.054
13273SOL     OW43612   3.751   3.458   3.841
13273SOL    HW143613   3.732   3.362   3.862
13273SOL    HW243614   3.718   3.516   3.916
13274SOL     OW43615   5.413   2.784   4.336
13274SOL    HW143616   5.508   2.755   4.344
13274SOL    HW243617   5.405   2.849   4.261
13275SOL     OW43618   5.365   2.970   4.156
13275SOL    HW143619   5.451   2.972   4.104
13275SOL    HW243620   5.379   3.017   4.244
13276SOL     OW43621   3.837   2.599   5.321
13276SOL    HW143622   3.925   2.586   5.366
13276SOL    HW243623   3.824   2.696   5.299
13277SOL     OW43624   4.337   3.227   4.450
13277SOL    HW143625   4.288   3.140   4.459
13277SOL    HW243626   4.314   3.270   4.363
13278SOL     OW43627   5.017   3.090   5.147
13278SOL    HW143628   5.054   3.017   5.089
13278SOL    HW243629   5.069   3.095   5.232
13279SOL     OW43630   4.533   1.866   4.226
13279SOL    HW143631   4.573   1.957   4.217
13279SOL    HW243632   4.433   1.874   4.232
13280SOL     OW43633   3.921   2.838   4.988
13280SOL    HW143634   4.010   2.793   4.974
13280SOL    HW243635   3.848   2.773   4.969
13281SOL     OW43636   5.249   2.861   3.914
13281SOL    HW143637   5.186   2.785   3.927
13281SOL    HW243638   5.297   2.879   4.000
13282SOL     OW43639   4.911   3.654   5.340
13282SOL    HW143640   4.935   3.714   5.264
13282SOL    HW243641   4.918   3.559   5.310
13283SOL     OW43642   4.041   2.113   5.525
13283SOL    HW143643   4.112   2.184   5.531
13283SOL    HW243644   3.953   2.152   5.553
13284SOL     OW43645   5.190   3.279   4.677
13284SOL    HW143646   5.131   3.285   4.757
13284SOL    HW243647   5.175   3.191   4.631
13285SOL     OW43648   5.391   3.576   4.296
13285SOL    HW143649   5.350   3.553   4.208
13285SOL    HW243650   5.373   3.502   4.361
13286SOL     OW43651   4.322   2.591   3.994
13286SOL    HW143652   4.346   2.660   3.926
13286SOL    HW243653   4.244   2.624   4.048
13287SOL     OW43654   5.005   2.207   4.668
13287SOL    HW143655   4.919   2.157   4.655
13287SOL    HW243656   5.067   2.153   4.724
13288SOL     OW43657   5.300   3.524   4.031
13288SOL    HW143658   5.389   3.570   4.034
13288SOL    HW243659   5.279   3.500   3.936
13289SOL     OW43660   4.531   2.467   5.189
13289SOL    HW143661   4.484   2.464   5.278
13289SOL    HW243662   4.480   2.412   5.123
13290SOL     OW43663   5.118   2.331   5.398
13290SOL    HW143664   5.098   2.374   5.486
13290SOL    HW243665   5.196   2.269   5.407
13291SOL     OW43666   4.697   2.752   5.296
13291SOL    HW143667   4.743   2.668   5.267
13291SOL    HW243668   4.641   2.786   5.221
13292SOL     OW43669   4.715   2.272   4.966
13292SOL    HW143670   4.638   2.306   5.020
13292SOL    HW243671   4.681   2.221   4.887
13293SOL     OW43672   4.765   2.563   4.153
13293SOL    HW143673   4.791   2.559   4.249
13293SOL    HW243674   4.680   2.512   4.139
13294SOL     OW43675   3.800   2.673   4.513
13294SOL    HW143676   3.899   2.661   4.522
13294SOL    HW243677   3.776   2.768   4.534
13295SOL     OW43678   3.854   3.683   5.295
13295SOL    HW143679   3.844   3.668   5.394
13295SOL    HW243680   3.768   3.719   5.259
13296SOL     OW43681   4.589   2.210   3.919
13296SOL    HW143682   4.648   2.273   3.870
13296SOL    HW243683   4.608   2.116   3.890
13297SOL     OW43684   5.443   2.447   5.555
13297SOL    HW143685   5.417   2.536   5.519
13297SOL    HW243686   5.441   2.379   5.482
13298SOL     OW43687   5.086   3.006   4.269
13298SOL    HW143688   5.169   2.977   4.221
13298SOL    HW243689   5.037   3.073   4.213
13299SOL     OW43690   4.274   2.058   4.609
13299SOL    HW143691   4.269   2.053   4.709
13299SOL    HW243692   4.276   2.154   4.580
13300SOL     OW43693   4.732   3.318   4.201
13300SOL    HW143694   4.686   3.390   4.149
13300SOL    HW243695   4.728   3.338   4.299
13301SOL     OW43696   4.075   3.663   4.577
13301SOL    HW143697   4.125   3.577   4.583
13301SOL    HW243698   4.140   3.740   4.574
13302SOL     OW43699   5.519   2.928   4.597
13302SOL    HW143700   5.457   2.913   4.521
13302SOL    HW243701   5.467   2.939   4.682
13303SOL     OW43702   4.951   3.412   5.230
13303SOL    HW143703   4.957   3.335   5.294
13303SOL    HW243704   4.899   3.386   5.150
13304SOL     OW43705   4.045   2.805   3.966
13304SOL    HW143706   4.127   2.844   3.924
13304SOL    HW243707   4.018   2.723   3.917
13305SOL     OW43708   5.182   2.597   4.452
13305SOL    HW143709   5.177   2.532   4.527
13305SOL    HW243710   5.262   2.656   4.465
13306SOL     OW43711   4.185   3.128   5.451
13306SOL    HW143712   4.135   3.129   5.365
13306SOL    HW243713   4.122   3.110   5.527
13307SOL     OW43714   4.835   3.638   3.961
13307SOL    HW143715   4.775   3.576   4.011
13307SOL    HW243716   4.866   3.594   3.876
13308SOL     OW43717   3.926   2.147   5.222
13308SOL    HW143718   3.846   2.207   5.209
13308SOL    HW243719   3.916   2.098   5.308
13309SOL     OW43720   5.356   3.239   3.805
13309SOL    HW143721   5.324   3.333   3.795
13309SOL    HW243722   5.280   3.176   3.793
13310SOL     OW43723   4.188   3.605   4.047
13310SOL    HW143724   4.221   3.644   4.133
13310SOL    HW243725   4.264   3.598   3.982
13311SOL     OW43726   5.124   1.969   4.150
13311SOL    HW143727   5.100   1.932   4.060
13311SOL    HW243728   5.223   1.985   4.154
13312SOL     OW43729   3.973   3.647   4.965
13312SOL    HW143730   4.030   3.582   5.015
13312SOL    HW243731   3.957   3.614   4.872
13313SOL     OW43732   4.664   3.560   4.628
13313SOL    HW143733   4.744   3.503   4.649
13313SOL    HW243734   4.615   3.520   4.551
13314SOL     OW43735   4.106   2.562   4.204
13314SOL    HW143736   4.151   2.472   4.201
13314SOL    HW243737   4.012   2.551   4.237
13315SOL     OW43738   5.271   2.084   5.453
13315SOL    HW143739   5.266   2.121   5.545
13315SOL    HW243740   5.199   2.015   5.441
13316SOL     OW43741   4.338   1.984   3.841
13316SOL    HW143742   4.436   1.962   3.848
13316SOL    HW243743   4.307   1.967   3.748
13317SOL     OW43744   4.505   2.126   5.473
13317SOL    HW143745   4.572   2.065   5.516
13317SOL    HW243746   4.432   2.145   5.538
13318SOL     OW43747   4.612   3.376   4.919
13318SOL    HW143748   4.589   3.351   4.825
13318SOL    HW243749   4.673   3.307   4.958
13319SOL     OW43750   5.075   2.452   5.157
13319SOL    HW143751   5.103   2.409   5.242
13319SOL    HW243752   5.100   2.548   5.158
13320SOL     OW43753   4.527   3.264   4.648
13320SOL    HW143754   4.617   3.278   4.606
13320SOL    HW243755   4.456   3.266   4.577
13321SOL     OW43756   4.646   2.365   4.623
13321SOL    HW143757   4.621   2.356   4.527
13321SOL    HW243758   4.694   2.283   4.654
13322SOL     OW43759   4.263   1.926   4.236
13322SOL    HW143760   4.182   1.927   4.294
13322SOL    HW243761   4.266   2.009   4.181
13323SOL     OW43762   5.158   3.050   3.765
13323SOL    HW143763   5.190   2.974   3.822
13323SOL    HW243764   5.066   3.077   3.795
13324SOL     OW43765   4.021   1.897   3.895
13324SOL    HW143766   4.070   1.981   3.874
13324SOL    HW243767   4.083   1.832   3.940
13325SOL     OW43768   4.659   2.098   4.204
13325SOL    HW143769   4.611   2.139   4.126
13325SOL    HW243770   4.758   2.096   4.185
13326SOL     OW43771   4.800   2.545   5.188
13326SOL    HW143772   4.720   2.484   5.191
13326SOL    HW243773   4.881   2.492   5.164
13327SOL     OW43774   4.951   3.432   4.517
13327SOL    HW143775   4.972   3.506   4.452
13327SOL    HW243776   5.019   3.432   4.590
13328SOL     OW43777   4.183   3.014   4.465
13328SOL    HW143778   4.112   2.987   4.530
13328SOL    HW243779   4.157   2.986   4.372
13329SOL     OW43780   4.995   3.659   4.315
13329SOL    HW143781   5.039   3.723   4.251
13329SOL    HW243782   4.945   3.711   4.385
13330SOL     OW43783   4.756   2.411   3.740
13330SOL    HW143784   4.715   2.493   3.701
13330SOL    HW243785   4.820   2.437   3.813
13331SOL     OW43786   3.802   2.418   5.110
13331SOL    HW143787   3.894   2.417   5.069
13331SOL    HW243788   3.796   2.492   5.177
13332SOL     OW43789   4.285   2.084   4.871
13332SOL    HW143790   4.323   2.000   4.908
13332SOL    HW243791   4.197   2.103   4.915
13333SOL     OW43792   4.590   2.316   4.366
13333SOL    HW143793   4.558   2.388   4.304
13333SOL    HW243794   4.614   2.235   4.313
13334SOL     OW43795   4.741   1.901   4.477
13334SOL    HW143796   4.669   1.906   4.408
13334SOL    HW243797   4.717   1.832   4.546
13335SOL     OW43798   5.153   3.035   4.591
13335SOL    HW143799   5.098   2.951   4.584
13335SOL    HW243800   5.179   3.064   4.499
13336SOL     OW43801   5.190   2.452   4.716
13336SOL    HW143802   5.160   2.357   4.723
13336SOL    HW243803   5.263   2.468   4.782
13337SOL     OW43804   5.581   2.695   4.101
13337SOL    HW143805   5.623   2.631   4.165
13337SOL    HW243806   5.543   2.644   4.023
13338SOL     OW43807   4.212   3.247   3.898
13338SOL    HW143808   4.125   3.232   3.945
13338SOL    HW243809   4.195   3.273   3.803
13339SOL     OW43810   5.388   3.142   4.381
13339SOL    HW143811   5.487   3.150   4.395
13339SOL    HW243812   5.343   3.226   4.412
13340SOL     OW43813   5.114   2.437   3.802
13340SOL    HW143814   5.060   2.416   3.883
13340SOL    HW243815   5.205   2.396   3.811
13341SOL     OW43816   4.251   2.118   4.052
13341SOL    HW143817   4.278   2.059   3.977
13341SOL    HW243818   4.251   2.213   4.021
13342SOL     OW43819   5.478   3.085   5.312
13342SOL    HW143820   5.569   3.046   5.299
13342SOL    HW243821   5.486   3.181   5.336
13343SOL     OW43822   4.788   3.209   5.064
13343SOL    HW143823   4.708   3.186   5.119
13343SOL    HW243824   4.871   3.183   5.113
13344SOL     OW43825   5.316   3.491   5.349
13344SOL    HW143826   5.343   3.525   5.259
13344SOL    HW243827   5.395   3.453   5.395
13345SOL     OW43828   4.835   3.057   4.824
13345SOL    HW143829   4.795   3.101   4.905
13345SOL    HW243830   4.794   3.094   4.741
13346SOL     OW43831   5.362   2.961   4.803
13346SOL    HW143832   5.367   3.042   4.862
13346SOL    HW243833   5.276   2.963   4.752
13347SOL     OW43834   4.639   1.951   5.126
13347SOL    HW143835   4.664   1.931   5.031
13347SOL    HW243836   4.711   2.007   5.168
13348SOL     OW43837   4.704   2.978   5.443
13348SOL    HW143838   4.605   2.984   5.453
13348SOL    HW243839   4.727   2.898   5.387
13349SOL     OW43840   4.429   2.912   4.092
13349SOL    HW143841   4.415   2.919   4.191
13349SOL    HW243842   4.513   2.861   4.074
13350SOL     OW43843   4.134   2.675   4.975
13350SOL    HW143844   4.220   2.687   5.025
13350SOL    HW243845   4.092   2.588   5.002
13351SOL     OW43846   4.998   2.248   4.986
13351SOL    HW143847   5.019   2.322   5.050
13351SOL    HW243848   4.909   2.265   4.943
13352SOL     OW43849   3.788   3.426   5.055
13352SOL    HW143850   3.742   3.508   5.021
13352SOL    HW243851   3.886   3.445   5.064
13353SOL     OW43852   4.091   2.962   4.225
13353SOL    HW143853   4.084   3.045   4.169
13353SOL    HW243854   4.095   2.882   4.165
13354SOL     OW43855   4.290   2.399   4.589
13354SOL    HW143856   4.302   2.465   4.515
13354SOL    HW243857   4.336   2.433   4.672
13355SOL     OW43858   4.976   3.210   4.112
13355SOL    HW143859   5.026   3.287   4.152
13355SOL    HW243860   4.881   3.212   4.144
13356SOL     OW43861   4.996   3.307   4.866
13356SOL    HW143862   5.043   3.320   4.953
13356SOL    HW243863   4.930   3.233   4.875
13357SOL     OW43864   5.306   2.501   4.196
13357SOL    HW143865   5.275   2.562   4.269
13357SOL    HW243866   5.356   2.553   4.127
13358SOL     OW43867   4.078   3.372   5.053
13358SOL    HW143868   4.057   3.328   4.966
13358SOL    HW243869   4.175   3.398   5.056
13359SOL     OW43870   4.126   2.613   5.322
13359SOL    HW143871   4.194   2.668   5.275
13359SOL    HW243872   4.166   2.525   5.349
13360SOL     OW43873   5.311   2.641   5.394
13360SOL    HW143874   5.219   2.679   5.389
13360SOL    HW243875   5.371   2.688   5.329
13361SOL     OW43876   4.737   1.967   5.494
13361SOL    HW143877   4.743   2.052   5.442
13361SOL    HW243878   4.769   1.891   5.437
13362SOL     OW43879   4.228   1.912   5.464
13362SOL    HW143880   4.186   1.855   5.394
13362SOL    HW243881   4.162   1.981   5.496
13363SOL     OW43882   4.297   2.732   4.753
13363SOL    HW143883   4.341   2.821   4.744
13363SOL    HW243884   4.234   2.732   4.830
13364SOL     OW43885   5.084   2.724   4.769
13364SOL    HW143886   5.009   2.724   4.703
13364SOL    HW243887   5.121   2.632   4.778
13365SOL     OW43888   4.933   2.387   3.999
13365SOL    HW143889   4.946   2.303   4.053
13365SOL    HW243890   4.904   2.461   4.059
13366SOL     OW43891   4.031   2.075   4.955
13366SOL    HW143892   4.008   2.112   5.045
13366SOL    HW243893   4.001   1.980   4.949
13367SOL     OW43894   3.761   3.172   5.006
13367SOL    HW143895   3.814   3.123   5.074
13367SOL    HW243896   3.783   3.270   5.011
13368SOL     OW43897   4.456   2.496   4.788
13368SOL    HW143898   4.515   2.470   4.712
13368SOL    HW243899   4.428   2.592   4.777
13369SOL     OW43900   5.452   2.797   5.578
13369SOL    HW143901   5.406   2.790   5.489
13369SOL    HW243902   5.390   2.841   5.644
13370SOL     OW43903   4.031   1.925   4.342
13370SOL    HW143904   4.020   2.019   4.375
13370SOL    HW243905   4.026   1.862   4.419
13371SOL     OW43906   5.346   2.229   4.098
13371SOL    HW143907   5.348   2.153   4.162
13371SOL    HW243908   5.298   2.306   4.138
13372SOL     OW43909   4.747   2.628   4.690
13372SOL    HW143910   4.762   2.649   4.786
13372SOL    HW243911   4.717   2.533   4.681
13373SOL     OW43912   4.704   3.435   5.424
13373SOL    HW143913   4.684   3.479   5.336
13373SOL    HW243914   4.743   3.344   5.408
13374SOL     OW43915   5.583   3.380   5.329
13374SOL    HW143916   5.597   3.407   5.234
13374SOL    HW243917   5.666   3.402   5.382
13375SOL     OW43918   4.074   2.760   5.528
13375SOL    HW143919   4.150   2.804   5.576
13375SOL    HW243920   4.109   2.713   5.446
13376SOL     OW43921   5.264   2.136   3.849
13376SOL    HW143922   5.203   2.061   3.872
13376SOL    HW243923   5.286   2.188   3.932
13377SOL     OW43924   5.027   2.700   3.766
13377SOL    HW143925   5.061   2.607   3.781
13377SOL    HW243926   5.045   2.727   3.671
13378SOL     OW43927   4.792   3.195   4.573
13378SOL    HW143928   4.799   3.111   4.518
13378SOL    HW243929   4.854   3.264   4.537
13379SOL     OW43930   4.043   2.672   4.673
13379SOL    HW143931   4.136   2.708   4.678
13379SOL    HW243932   4.037   2.587   4.725
13380SOL     OW43933   4.063   2.371   4.730
13380SOL    HW143934   4.011   2.288   4.713
13380SOL    HW243935   4.140   2.376   4.666
13381SOL     OW43936   4.862   2.242   5.402
13381SOL    HW143937   4.817   2.305   5.466
13381SOL    HW243938   4.955   2.273   5.385
13382SOL     OW43939   4.884   2.069   5.201
13382SOL    HW143940   4.884   2.133   5.278
13382SOL    HW243941   4.912   2.117   5.118
13383SOL     OW43942   3.732   3.188   3.924
13383SOL    HW143943   3.639   3.209   3.893
13383SOL    HW243944   3.742   3.089   3.937
13384SOL     OW43945   3.812   3.663   4.651
13384SOL    HW143946   3.770   3.577   4.624
13384SOL    HW243947   3.906   3.666   4.617
13385SOL     OW43948   4.228   3.430   4.634
13385SOL    HW143949   4.294   3.504   4.643
13385SOL    HW243950   4.272   3.351   4.592
13386SOL     OW43951   4.726   2.658   4.962
13386SOL    HW143952   4.767   2.626   5.048
13386SOL    HW243953   4.630   2.631   4.959
13387SOL     OW43954   3.764   2.406   4.838
13387SOL    HW143955   3.849   2.373   4.797
13387SOL    HW243956   3.777   2.421   4.936
13388SOL     OW43957   3.913   2.382   5.446
13388SOL    HW143958   3.972   2.342   5.376
13388SOL    HW243959   3.855   2.453   5.405
13389SOL     OW43960   5.093   2.812   5.384
13389SOL    HW143961   5.132   2.901   5.404
13389SOL    HW243962   5.103   2.792   5.287
13390SOL     OW43963   4.539   2.434   4.049
13390SOL    HW143964   4.546   2.345   4.003
13390SOL    HW243965   4.445   2.468   4.041
13391SOL     OW43966   5.381   2.466   4.930
13391SOL    HW143967   5.343   2.397   4.992
13391SOL    HW243968   5.463   2.430   4.886
13392SOL     OW43969   3.976   3.426   5.468
13392SOL    HW143970   3.946   3.483   5.544
13392SOL    HW243971   3.969   3.329   5.494
13393SOL     OW43972   4.395   2.326   4.993
13393SOL    HW143973   4.361   2.237   4.963
13393SOL    HW243974   4.421   2.380   4.913
13394SOL     OW43975   4.654   3.540   5.189
13394SOL    HW143976   4.630   3.522   5.094
13394SOL    HW243977   4.684   3.634   5.199
13395SOL     OW43978   4.197   2.362   3.915
13395SOL    HW143979   4.258   2.442   3.919
13395SOL    HW243980   4.102   2.393   3.922
13396SOL     OW43981   3.883   2.999   5.190
13396SOL    HW143982   3.905   2.938   5.266
13396SOL    HW243983   3.893   2.950   5.104
13397SOL     OW43984   5.071   2.921   4.958
13397SOL    HW143985   5.095   2.858   4.884
13397SOL    HW243986   4.981   2.961   4.940
13398SOL     OW43987   5.026   2.717   4.033
13398SOL    HW143988   4.940   2.686   4.075
13398SOL    HW243989   5.022   2.703   3.934
13399SOL     OW43990   5.483   3.609   4.878
13399SOL    HW143991   5.544   3.639   4.805
13399SOL    HW243992   5.445   3.520   4.856
13400SOL     OW43993   4.976   3.593   4.852
13400SOL    HW143994   5.060   3.598   4.798
13400SOL    HW243995   4.953   3.497   4.870
13401SOL     OW43996   3.807   3.120   4.746
13401SOL    HW143997   3.802   3.119   4.846
13401SOL    HW243998   3.724   3.079   4.708
13402SOL     OW43999   4.412   3.524   5.440
13402SOL    HW144000   4.356   3.605   5.449
13402SOL    HW244001   4.464   3.528   5.354
13403SOL     OW44002   5.450   1.997   4.247
13403SOL    HW144003   5.523   1.980   4.180
13403SOL    HW244004   5.419   1.910   4.285
13404SOL     OW44005   5.112   3.435   4.201
13404SOL    HW144006   5.179   3.447   4.127
13404SOL    HW244007   5.072   3.524   4.224
13405SOL     OW44008   3.854   3.656   5.575
13405SOL    HW144009   3.813   3.582   5.628
13405SOL    HW244010   3.918   3.707   5.633
13406SOL     OW44011   5.004   2.789   4.396
13406SOL    HW144012   5.064   2.708   4.398
13406SOL    HW244013   5.044   2.858   4.336
13407SOL     OW44014   4.554   3.135   5.146
13407SOL    HW144015   4.549   3.168   5.241
13407SOL    HW244016   4.468   3.154   5.100
13408SOL     OW44017   4.396   3.478   3.878
13408SOL    HW144018   4.405   3.488   3.779
13408SOL    HW244019   4.356   3.389   3.899
13409SOL     OW44020   5.374   3.582   5.118
13409SOL    HW144021   5.427   3.592   5.034
13409SOL    HW244022   5.347   3.672   5.152
13410SOL     OW44023   5.565   2.037   4.687
13410SOL    HW144024   5.604   1.952   4.651
13410SOL    HW244025   5.467   2.039   4.668
13411SOL     OW44026   3.987   2.188   4.444
13411SOL    HW144027   3.908   2.239   4.410
13411SOL    HW244028   3.978   2.173   4.542
13412SOL     OW44029   4.918   3.474   3.755
13412SOL    HW144030   4.924   3.381   3.792
13412SOL    HW244031   4.859   3.474   3.675
13413SOL     OW44032   4.546   2.864   5.096
13413SOL    HW144033   4.586   2.863   5.004
13413SOL    HW244034   4.556   2.956   5.136
13414SOL     OW44035   4.640   2.772   4.015
13414SOL    HW144036   4.703   2.810   3.947
13414SOL    HW244037   4.680   2.689   4.054
13415SOL     OW44038   5.228   3.469   3.768
13415SOL    HW144039   5.136   3.506   3.775
13415SOL    HW244040   5.266   3.489   3.678
13416SOL     OW44041   4.096   3.150   5.214
13416SOL    HW144042   4.083   3.243   5.180
13416SOL    HW244043   4.012   3.098   5.201
13417SOL     OW44044   5.338   3.154   5.013
13417SOL    HW144045   5.398   3.157   5.093
13417SOL    HW244046   5.263   3.218   5.026
13418SOL     OW44047   4.763   2.960   4.420
13418SOL    HW144048   4.693   2.913   4.474
13418SOL    HW244049   4.822   2.892   4.377
13419SOL     OW44050   4.738   2.098   4.695
13419SOL    HW144051   4.730   2.062   4.602
13419SOL    HW244052   4.736   2.022   4.760
13420SOL     OW44053   4.314   3.349   4.215
13420SOL    HW144054   4.356   3.291   4.145
13420SOL    HW244055   4.270   3.428   4.171
13421SOL     OW44056   5.433   2.247   5.105
13421SOL    HW144057   5.506   2.316   5.109
13421SOL    HW244058   5.461   2.172   5.046
13422SOL     OW44059   3.979   3.210   4.014
13422SOL    HW144060   3.883   3.211   3.987
13422SOL    HW244061   3.991   3.263   4.098
13423SOL     OW44062   3.829   2.875   5.450
13423SOL    HW144063   3.752   2.842   5.504
13423SOL    HW244064   3.914   2.845   5.492
13424SOL     OW44065   4.396   2.065   5.213
13424SOL    HW144066   4.486   2.049   5.173
13424SOL    HW244067   4.404   2.070   5.312
13425SOL     OW44068   3.799   2.207   3.757
13425SOL    HW144069   3.707   2.179   3.728
13425SOL    HW244070   3.830   2.284   3.701
13426SOL     OW44071   5.164   2.718   5.122
13426SOL    HW144072   5.107   2.770   5.059
13426SOL    HW244073   5.260   2.730   5.098
13427SOL     OW44074   3.796   2.028   4.042
13427SOL    HW144075   3.779   2.111   3.988
13427SOL    HW244076   3.886   1.991   4.020
13428SOL     OW44077   4.907   3.197   3.843
13428SOL    HW144078   4.808   3.186   3.845
13428SOL    HW244079   4.941   3.212   3.936
13429SOL     OW44080   4.337   2.704   5.155
13429SOL    HW144081   4.393   2.785   5.138
13429SOL    HW244082   4.396   2.624   5.158
13430SOL     OW44083   5.217   3.629   4.683
13430SOL    HW144084   5.250   3.693   4.614
13430SOL    HW244085   5.283   3.623   4.758
13431SOL     OW44086   4.440   2.427   5.432
13431SOL    HW144087   4.459   2.492   5.506
13431SOL    HW244088   4.500   2.347   5.441
13432SOL     OW44089   5.174   3.082   5.357
13432SOL    HW144090   5.165   3.072   5.456
13432SOL    HW244091   5.270   3.075   5.331
13433SOL     OW44092   4.114   3.603   5.284
13433SOL    HW144093   4.023   3.644   5.282
13433SOL    HW244094   4.107   3.509   5.316
13434SOL     OW44095   5.398   2.745   4.978
13434SOL    HW144096   5.371   2.656   4.941
13434SOL    HW244097   5.399   2.813   4.905
13435SOL     OW44098   4.949   2.187   4.173
13435SOL    HW144099   5.014   2.113   4.162
13435SOL    HW244100   4.969   2.237   4.257
13436SOL     OW44101   4.318   2.607   4.376
13436SOL    HW144102   4.368   2.692   4.357
13436SOL    HW244103   4.230   2.609   4.328
13437SOL     OW44104   5.501   2.204   5.366
13437SOL    HW144105   5.484   2.235   5.272
13437SOL    HW244106   5.417   2.167   5.404
13438SOL     OW44107   5.454   2.796   5.241
13438SOL    HW144108   5.492   2.887   5.256
13438SOL    HW244109   5.446   2.779   5.142
13439SOL     OW44110   4.583   3.236   3.740
13439SOL    HW144111   4.537   3.251   3.828
13439SOL    HW244112   4.627   3.321   3.710
13440SOL     OW44113   4.385   3.652   4.677
13440SOL    HW144114   4.339   3.740   4.664
13440SOL    HW244115   4.484   3.664   4.670
13441SOL     OW44116   4.583   2.818   4.585
13441SOL    HW144117   4.637   2.749   4.633
13441SOL    HW244118   4.551   2.887   4.651
13442SOL     OW44119   4.807   2.846   3.811
13442SOL    HW144120   4.784   2.899   3.729
13442SOL    HW244121   4.888   2.790   3.792
13443SOL     OW44122   5.585   3.431   4.575
13443SOL    HW144123   5.514   3.419   4.505
13443SOL    HW244124   5.586   3.352   4.635
13444SOL     OW44125   3.945   3.176   5.568
13444SOL    HW144126   3.880   3.103   5.547
13444SOL    HW244127   3.949   3.190   5.666
13445SOL     OW44128   3.803   3.102   4.377
13445SOL    HW144129   3.802   3.055   4.465
13445SOL    HW244130   3.885   3.074   4.326
13446SOL     OW44131   4.396   3.253   5.348
13446SOL    HW144132   4.318   3.203   5.386
13446SOL    HW244133   4.393   3.348   5.379
13447SOL     OW44134   5.548   2.054   4.951
13447SOL    HW144135   5.544   1.964   4.995
13447SOL    HW244136   5.551   2.043   4.852
13448SOL     OW44137   4.152   2.286   4.244
13448SOL    HW144138   4.182   2.214   4.182
13448SOL    HW244139   4.113   2.246   4.327
13449SOL     OW44140   5.429   3.349   4.828
13449SOL    HW144141   5.336   3.324   4.801
13449SOL    HW244142   5.455   3.299   4.910
13450SOL     OW44143   4.041   2.409   5.004
13450SOL    HW144144   4.079   2.350   5.076
13450SOL    HW244145   4.081   2.383   4.916
13451SOL     OW44146   4.536   3.448   4.411
13451SOL    HW144147   4.568   3.458   4.317
13451SOL    HW244148   4.457   3.386   4.413
13452SOL     OW44149   5.148   2.076   4.836
13452SOL    HW144150   5.200   2.011   4.891
13452SOL    HW244151   5.099   2.139   4.897
13453SOL     OW44152   4.725   1.896   4.878
13453SOL    HW144153   4.662   1.824   4.847
13453SOL    HW244154   4.818   1.860   4.878
13454SOL     OW44155   4.494   3.192   4.025
13454SOL    HW144156   4.448   3.105   4.042
13454SOL    HW244157   4.585   3.189   4.066
13455SOL     OW44158   4.342   3.429   5.008
13455SOL    HW144159   4.337   3.511   5.065
13455SOL    HW244160   4.431   3.426   4.963
13456SOL     OW44161   5.076   1.914   3.892
13456SOL    HW144162   5.111   1.873   3.808
13456SOL    HW244163   4.986   1.876   3.912
13457SOL     OW44164   5.024   2.315   4.415
13457SOL    HW144165   4.965   2.395   4.419
13457SOL    HW244166   5.039   2.280   4.508
13458SOL     OW44167   5.317   2.083   4.606
13458SOL    HW144168   5.233   2.082   4.660
13458SOL    HW244169   5.319   2.166   4.550
13459SOL     OW44170   3.763   2.939   4.024
13459SOL    HW144171   3.862   2.928   4.015
13459SOL    HW244172   3.723   2.853   4.056
13460SOL     OW44173   4.599   3.508   4.061
13460SOL    HW144174   4.522   3.473   4.007
13460SOL    HW244175   4.567   3.579   4.123
13461SOL     OW44176   3.954   2.490   5.699
13461SOL    HW144177   3.861   2.488   5.736
13461SOL    HW244178   3.955   2.451   5.607
13462SOL     OW44179   3.949   2.137   6.582
13462SOL    HW144180   3.984   2.120   6.674
13462SOL    HW244181   3.861   2.092   6.570
13463SOL     OW44182   3.743   2.230   6.233
13463SOL    HW144183   3.661   2.273   6.272
13463SOL    HW244184   3.715   2.157   6.170
13464SOL     OW44185   4.293   3.137   6.751
13464SOL    HW144186   4.200   3.130   6.714
13464SOL    HW244187   4.304   3.226   6.795
13465SOL     OW44188   5.279   3.373   6.289
13465SOL    HW144189   5.222   3.357   6.370
13465SOL    HW244190   5.220   3.383   6.209
13466SOL     OW44191   4.859   2.565   6.303
13466SOL    HW144192   4.916   2.643   6.278
13466SOL    HW244193   4.799   2.591   6.379
13467SOL     OW44194   5.479   2.469   5.817
13467SOL    HW144195   5.467   2.456   5.718
13467SOL    HW244196   5.449   2.388   5.866
13468SOL     OW44197   4.492   3.006   6.609
13468SOL    HW144198   4.414   3.023   6.669
13468SOL    HW244199   4.526   3.093   6.573
13469SOL     OW44200   4.574   2.660   7.409
13469SOL    HW144201   4.570   2.736   7.474
13469SOL    HW244202   4.596   2.696   7.318
13470SOL     OW44203   4.409   2.874   6.251
13470SOL    HW144204   4.478   2.858   6.321
13470SOL    HW244205   4.336   2.931   6.289
13471SOL     OW44206   4.410   3.023   7.389
13471SOL    HW144207   4.470   3.102   7.403
13471SOL    HW244208   4.324   3.054   7.348
13472SOL     OW44209   4.059   3.297   6.647
13472SOL    HW144210   3.981   3.266   6.594
13472SOL    HW244211   4.117   3.355   6.590
13473SOL     OW44212   5.184   3.367   6.925
13473SOL    HW144213   5.208   3.461   6.951
13473SOL    HW244214   5.168   3.313   7.007
13474SOL     OW44215   4.162   2.254   7.085
13474SOL    HW144216   4.244   2.198   7.094
13474SOL    HW244217   4.081   2.196   7.089
13475SOL     OW44218   5.327   2.309   6.323
13475SOL    HW144219   5.253   2.355   6.273
13475SOL    HW244220   5.378   2.377   6.376
13476SOL     OW44221   3.955   3.575   6.069
13476SOL    HW144222   3.989   3.652   6.123
13476SOL    HW244223   3.999   3.575   5.979
13477SOL     OW44224   4.851   3.203   7.276
13477SOL    HW144225   4.898   3.203   7.364
13477SOL    HW244226   4.803   3.116   7.265
13478SOL     OW44227   3.954   3.296   6.124
13478SOL    HW144228   3.928   3.392   6.124
13478SOL    HW244229   3.883   3.242   6.169
13479SOL     OW44230   3.964   2.953   6.472
13479SOL    HW144231   3.978   2.869   6.524
13479SOL    HW244232   3.909   3.017   6.527
13480SOL     OW44233   4.344   3.648   7.025
13480SOL    HW144234   4.252   3.631   7.060
13480SOL    HW244235   4.372   3.740   7.051
13481SOL     OW44236   4.330   2.826   5.709
13481SOL    HW144237   4.337   2.910   5.655
13481SOL    HW244238   4.376   2.839   5.797
13482SOL     OW44239   5.318   1.976   7.066
13482SOL    HW144240   5.300   2.043   6.994
13482SOL    HW244241   5.315   2.022   7.155
13483SOL     OW44242   3.846   2.505   6.149
13483SOL    HW144243   3.801   2.417   6.166
13483SOL    HW244244   3.845   2.559   6.233
13484SOL     OW44245   5.566   3.629   5.945
13484SOL    HW144246   5.620   3.600   6.025
13484SOL    HW244247   5.596   3.719   5.916
13485SOL     OW44248   3.751   3.458   5.703
13485SOL    HW144249   3.732   3.362   5.724
13485SOL    HW244250   3.718   3.516   5.778
13486SOL     OW44251   5.413   2.784   6.198
13486SOL    HW144252   5.508   2.755   6.206
13486SOL    HW244253   5.405   2.849   6.123
13487SOL     OW44254   5.365   2.970   6.018
13487SOL    HW144255   5.451   2.972   5.966
13487SOL    HW244256   5.379   3.017   6.106
13488SOL     OW44257   3.837   2.599   7.183
13488SOL    HW144258   3.925   2.586   7.228
13488SOL    HW244259   3.824   2.696   7.161
13489SOL     OW44260   4.337   3.227   6.312
13489SOL    HW144261   4.288   3.140   6.321
13489SOL    HW244262   4.314   3.270   6.225
13490SOL     OW44263   5.017   3.090   7.009
13490SOL    HW144264   5.054   3.017   6.951
13490SOL    HW244265   5.069   3.095   7.094
13491SOL     OW44266   4.533   1.866   6.088
13491SOL    HW144267   4.573   1.957   6.079
13491SOL    HW244268   4.433   1.874   6.094
13492SOL     OW44269   3.921   2.838   6.850
13492SOL    HW144270   4.010   2.793   6.836
13492SOL    HW244271   3.848   2.773   6.831
13493SOL     OW44272   5.249   2.861   5.776
13493SOL    HW144273   5.186   2.785   5.789
13493SOL    HW244274   5.297   2.879   5.862
13494SOL     OW44275   4.911   3.654   7.202
13494SOL    HW144276   4.935   3.714   7.126
13494SOL    HW244277   4.918   3.559   7.172
13495SOL     OW44278   4.041   2.113   7.387
13495SOL    HW144279   4.112   2.184   7.393
13495SOL    HW244280   3.953   2.152   7.415
13496SOL     OW44281   5.190   3.279   6.539
13496SOL    HW144282   5.131   3.285   6.619
13496SOL    HW244283   5.175   3.191   6.493
13497SOL     OW44284   5.391   3.576   6.158
13497SOL    HW144285   5.350   3.553   6.070
13497SOL    HW244286   5.373   3.502   6.223
13498SOL     OW44287   4.322   2.591   5.856
13498SOL    HW144288   4.346   2.660   5.788
13498SOL    HW244289   4.244   2.624   5.910
13499SOL     OW44290   5.005   2.207   6.530
13499SOL    HW144291   4.919   2.157   6.517
13499SOL    HW244292   5.067   2.153   6.586
13500SOL     OW44293   5.300   3.524   5.893
13500SOL    HW144294   5.389   3.570   5.896
13500SOL    HW244295   5.279   3.500   5.798
13501SOL     OW44296   4.531   2.467   7.051
13501SOL    HW144297   4.484   2.464   7.140
13501SOL    HW244298   4.480   2.412   6.985
13502SOL     OW44299   5.118   2.331   7.260
13502SOL    HW144300   5.098   2.374   7.348
13502SOL    HW244301   5.196   2.269   7.269
13503SOL     OW44302   4.697   2.752   7.158
13503SOL    HW144303   4.743   2.668   7.129
13503SOL    HW244304   4.641   2.786   7.083
13504SOL     OW44305   4.715   2.272   6.828
13504SOL    HW144306   4.638   2.306   6.882
13504SOL    HW244307   4.681   2.221   6.749
13505SOL     OW44308   4.765   2.563   6.015
13505SOL    HW144309   4.791   2.559   6.111
13505SOL    HW244310   4.680   2.512   6.001
13506SOL     OW44311   3.800   2.673   6.375
13506SOL    HW144312   3.899   2.661   6.384
13506SOL    HW244313   3.776   2.768   6.396
13507SOL     OW44314   3.854   3.683   7.157
13507SOL    HW144315   3.844   3.668   7.256
13507SOL    HW244316   3.768   3.719   7.121
13508SOL     OW44317   4.589   2.210   5.781
13508SOL    HW144318   4.648   2.273   5.732
13508SOL    HW244319   4.608   2.116   5.752
13509SOL     OW44320   5.443   2.447   7.417
13509SOL    HW144321   5.417   2.536   7.381
13509SOL    HW244322   5.441   2.379   7.344
13510SOL     OW44323   5.086   3.006   6.131
13510SOL    HW144324   5.169   2.977   6.083
13510SOL    HW244325   5.037   3.073   6.075
13511SOL     OW44326   4.274   2.058   6.471
13511SOL    HW144327   4.269   2.053   6.571
13511SOL    HW244328   4.276   2.154   6.442
13512SOL     OW44329   4.732   3.318   6.063
13512SOL    HW144330   4.686   3.390   6.011
13512SOL    HW244331   4.728   3.338   6.161
13513SOL     OW44332   4.075   3.663   6.439
13513SOL    HW144333   4.125   3.577   6.445
13513SOL    HW244334   4.140   3.740   6.436
13514SOL     OW44335   5.519   2.928   6.459
13514SOL    HW144336   5.457   2.913   6.383
13514SOL    HW244337   5.467   2.939   6.544
13515SOL     OW44338   4.951   3.412   7.092
13515SOL    HW144339   4.957   3.335   7.156
13515SOL    HW244340   4.899   3.386   7.012
13516SOL     OW44341   4.045   2.805   5.828
13516SOL    HW144342   4.127   2.844   5.786
13516SOL    HW244343   4.018   2.723   5.779
13517SOL     OW44344   5.182   2.597   6.314
13517SOL    HW144345   5.177   2.532   6.389
13517SOL    HW244346   5.262   2.656   6.327
13518SOL     OW44347   4.185   3.128   7.313
13518SOL    HW144348   4.135   3.129   7.227
13518SOL    HW244349   4.122   3.110   7.389
13519SOL     OW44350   4.835   3.638   5.823
13519SOL    HW144351   4.775   3.576   5.873
13519SOL    HW244352   4.866   3.594   5.738
13520SOL     OW44353   3.926   2.147   7.084
13520SOL    HW144354   3.846   2.207   7.071
13520SOL    HW244355   3.916   2.098   7.170
13521SOL     OW44356   5.356   3.239   5.667
13521SOL    HW144357   5.324   3.333   5.657
13521SOL    HW244358   5.280   3.176   5.655
13522SOL     OW44359   4.188   3.605   5.909
13522SOL    HW144360   4.221   3.644   5.995
13522SOL    HW244361   4.264   3.598   5.844
13523SOL     OW44362   5.124   1.969   6.012
13523SOL    HW144363   5.100   1.932   5.922
13523SOL    HW244364   5.223   1.985   6.016
13524SOL     OW44365   3.973   3.647   6.827
13524SOL    HW144366   4.030   3.582   6.877
13524SOL    HW244367   3.957   3.614   6.734
13525SOL     OW44368   4.664   3.560   6.490
13525SOL    HW144369   4.744   3.503   6.511
13525SOL    HW244370   4.615   3.520   6.413
13526SOL     OW44371   4.106   2.562   6.066
13526SOL    HW144372   4.151   2.472   6.063
13526SOL    HW244373   4.012   2.551   6.099
13527SOL     OW44374   5.271   2.084   7.315
13527SOL    HW144375   5.266   2.121   7.407
13527SOL    HW244376   5.199   2.015   7.303
13528SOL     OW44377   4.338   1.984   5.703
13528SOL    HW144378   4.436   1.962   5.710
13528SOL    HW244379   4.307   1.967   5.610
13529SOL     OW44380   4.505   2.126   7.335
13529SOL    HW144381   4.572   2.065   7.378
13529SOL    HW244382   4.432   2.145   7.400
13530SOL     OW44383   4.612   3.376   6.781
13530SOL    HW144384   4.589   3.351   6.687
13530SOL    HW244385   4.673   3.307   6.820
13531SOL     OW44386   5.075   2.452   7.019
13531SOL    HW144387   5.103   2.409   7.104
13531SOL    HW244388   5.100   2.548   7.020
13532SOL     OW44389   4.527   3.264   6.510
13532SOL    HW144390   4.617   3.278   6.468
13532SOL    HW244391   4.456   3.266   6.439
13533SOL     OW44392   4.646   2.365   6.485
13533SOL    HW144393   4.621   2.356   6.389
13533SOL    HW244394   4.694   2.283   6.516
13534SOL     OW44395   4.263   1.926   6.098
13534SOL    HW144396   4.182   1.927   6.156
13534SOL    HW244397   4.266   2.009   6.043
13535SOL     OW44398   5.158   3.050   5.627
13535SOL    HW144399   5.190   2.974   5.684
13535SOL    HW244400   5.066   3.077   5.657
13536SOL     OW44401   4.021   1.897   5.757
13536SOL    HW144402   4.070   1.981   5.736
13536SOL    HW244403   4.083   1.832   5.802
13537SOL     OW44404   4.659   2.098   6.066
13537SOL    HW144405   4.611   2.139   5.988
13537SOL    HW244406   4.758   2.096   6.047
13538SOL     OW44407   4.800   2.545   7.050
13538SOL    HW144408   4.720   2.484   7.053
13538SOL    HW244409   4.881   2.492   7.026
13539SOL     OW44410   4.951   3.432   6.379
13539SOL    HW144411   4.972   3.506   6.314
13539SOL    HW244412   5.019   3.432   6.452
13540SOL     OW44413   4.183   3.014   6.327
13540SOL    HW144414   4.112   2.987   6.392
13540SOL    HW244415   4.157   2.986   6.234
13541SOL     OW44416   4.995   3.659   6.177
13541SOL    HW144417   5.039   3.723   6.113
13541SOL    HW244418   4.945   3.711   6.247
13542SOL     OW44419   4.756   2.411   5.602
13542SOL    HW144420   4.715   2.493   5.563
13542SOL    HW244421   4.820   2.437   5.675
13543SOL     OW44422   3.802   2.418   6.972
13543SOL    HW144423   3.894   2.417   6.931
13543SOL    HW244424   3.796   2.492   7.039
13544SOL     OW44425   4.285   2.084   6.733
13544SOL    HW144426   4.323   2.000   6.770
13544SOL    HW244427   4.197   2.103   6.777
13545SOL     OW44428   4.590   2.316   6.228
13545SOL    HW144429   4.558   2.388   6.166
13545SOL    HW244430   4.614   2.235   6.175
13546SOL     OW44431   4.741   1.901   6.339
13546SOL    HW144432   4.669   1.906   6.270
13546SOL    HW244433   4.717   1.832   6.408
13547SOL     OW44434   5.153   3.035   6.453
13547SOL    HW144435   5.098   2.951   6.446
13547SOL    HW244436   5.179   3.064   6.361
13548SOL     OW44437   5.190   2.452   6.578
13548SOL    HW144438   5.160   2.357   6.585
13548SOL    HW244439   5.263   2.468   6.644
13549SOL     OW44440   5.581   2.695   5.963
13549SOL    HW144441   5.623   2.631   6.027
13549SOL    HW244442   5.543   2.644   5.885
13550SOL     OW44443   4.212   3.247   5.760
13550SOL    HW144444   4.125   3.232   5.807
13550SOL    HW244445   4.195   3.273   5.665
13551SOL     OW44446   5.388   3.142   6.243
13551SOL    HW144447   5.487   3.150   6.257
13551SOL    HW244448   5.343   3.226   6.274
13552SOL     OW44449   5.114   2.437   5.664
13552SOL    HW144450   5.060   2.416   5.745
13552SOL    HW244451   5.205   2.396   5.673
13553SOL     OW44452   4.251   2.118   5.914
13553SOL    HW144453   4.278   2.059   5.839
13553SOL    HW244454   4.251   2.213   5.883
13554SOL     OW44455   5.478   3.085   7.174
13554SOL    HW144456   5.569   3.046   7.161
13554SOL    HW244457   5.486   3.181   7.198
13555SOL     OW44458   4.788   3.209   6.926
13555SOL    HW144459   4.708   3.186   6.981
13555SOL    HW244460   4.871   3.183   6.975
13556SOL     OW44461   5.316   3.491   7.211
13556SOL    HW144462   5.343   3.525   7.121
13556SOL    HW244463   5.395   3.453   7.257
13557SOL     OW44464   4.835   3.057   6.686
13557SOL    HW144465   4.795   3.101   6.767
13557SOL    HW244466   4.794   3.094   6.603
13558SOL     OW44467   5.362   2.961   6.665
13558SOL    HW144468   5.367   3.042   6.724
13558SOL    HW244469   5.276   2.963   6.614
13559SOL     OW44470   4.639   1.951   6.988
13559SOL    HW144471   4.664   1.931   6.893
13559SOL    HW244472   4.711   2.007   7.030
13560SOL     OW44473   4.704   2.978   7.305
13560SOL    HW144474   4.605   2.984   7.315
13560SOL    HW244475   4.727   2.898   7.249
13561SOL     OW44476   4.429   2.912   5.954
13561SOL    HW144477   4.415   2.919   6.053
13561SOL    HW244478   4.513   2.861   5.936
13562SOL     OW44479   4.134   2.675   6.837
13562SOL    HW144480   4.220   2.687   6.887
13562SOL    HW244481   4.092   2.588   6.864
13563SOL     OW44482   4.998   2.248   6.848
13563SOL    HW144483   5.019   2.322   6.912
13563SOL    HW244484   4.909   2.265   6.805
13564SOL     OW44485   3.788   3.426   6.917
13564SOL    HW144486   3.742   3.508   6.883
13564SOL    HW244487   3.886   3.445   6.926
13565SOL     OW44488   4.091   2.962   6.087
13565SOL    HW144489   4.084   3.045   6.031
13565SOL    HW244490   4.095   2.882   6.027
13566SOL     OW44491   4.290   2.399   6.451
13566SOL    HW144492   4.302   2.465   6.377
13566SOL    HW244493   4.336   2.433   6.534
13567SOL     OW44494   4.976   3.210   5.974
13567SOL    HW144495   5.026   3.287   6.014
13567SOL    HW244496   4.881   3.212   6.006
13568SOL     OW44497   4.996   3.307   6.728
13568SOL    HW144498   5.043   3.320   6.815
13568SOL    HW244499   4.930   3.233   6.737
13569SOL     OW44500   5.306   2.501   6.058
13569SOL    HW144501   5.275   2.562   6.131
13569SOL    HW244502   5.356   2.553   5.989
13570SOL     OW44503   4.078   3.372   6.915
13570SOL    HW144504   4.057   3.328   6.828
13570SOL    HW244505   4.175   3.398   6.918
13571SOL     OW44506   4.126   2.613   7.184
13571SOL    HW144507   4.194   2.668   7.137
13571SOL    HW244508   4.166   2.525   7.211
13572SOL     OW44509   5.311   2.641   7.256
13572SOL    HW144510   5.219   2.679   7.251
13572SOL    HW244511   5.371   2.688   7.191
13573SOL     OW44512   4.737   1.967   7.356
13573SOL    HW144513   4.743   2.052   7.304
13573SOL    HW244514   4.769   1.891   7.299
13574SOL     OW44515   4.228   1.912   7.326
13574SOL    HW144516   4.186   1.855   7.256
13574SOL    HW244517   4.162   1.981   7.358
13575SOL     OW44518   4.297   2.732   6.615
13575SOL    HW144519   4.341   2.821   6.606
13575SOL    HW244520   4.234   2.732   6.692
13576SOL     OW44521   5.084   2.724   6.631
13576SOL    HW144522   5.009   2.724   6.565
13576SOL    HW244523   5.121   2.632   6.640
13577SOL     OW44524   4.933   2.387   5.861
13577SOL    HW144525   4.946   2.303   5.915
13577SOL    HW244526   4.904   2.461   5.921
13578SOL     OW44527   4.031   2.075   6.817
13578SOL    HW144528   4.008   2.112   6.907
13578SOL    HW244529   4.001   1.980   6.811
13579SOL     OW44530   3.761   3.172   6.868
13579SOL    HW144531   3.814   3.123   6.936
13579SOL    HW244532   3.783   3.270   6.873
13580SOL     OW44533   4.456   2.496   6.650
13580SOL    HW144534   4.515   2.470   6.574
13580SOL    HW244535   4.428   2.592   6.639
13581SOL     OW44536   5.452   2.797   7.440
13581SOL    HW144537   5.406   2.790   7.351
13581SOL    HW244538   5.390   2.841   7.506
13582SOL     OW44539   4.031   1.925   6.204
13582SOL    HW144540   4.020   2.019   6.237
13582SOL    HW244541   4.026   1.862   6.281
13583SOL     OW44542   5.346   2.229   5.960
13583SOL    HW144543   5.348   2.153   6.024
13583SOL    HW244544   5.298   2.306   6.000
13584SOL     OW44545   4.747   2.628   6.552
13584SOL    HW144546   4.762   2.649   6.648
13584SOL    HW244547   4.717   2.533   6.543
13585SOL     OW44548   4.704   3.435   7.286
13585SOL    HW144549   4.684   3.479   7.198
13585SOL    HW244550   4.743   3.344   7.270
13586SOL     OW44551   5.583   3.380   7.191
13586SOL    HW144552   5.597   3.407   7.096
13586SOL    HW244553   5.666   3.402   7.244
13587SOL     OW44554   4.074   2.760   7.390
13587SOL    HW144555   4.150   2.804   7.438
13587SOL    HW244556   4.109   2.713   7.308
13588SOL     OW44557   5.264   2.136   5.711
13588SOL    HW144558   5.203   2.061   5.734
13588SOL    HW244559   5.286   2.188   5.794
13589SOL     OW44560   5.027   2.700   5.628
13589SOL    HW144561   5.061   2.607   5.643
13589SOL    HW244562   5.045   2.727   5.533
13590SOL     OW44563   4.792   3.195   6.435
13590SOL    HW144564   4.799   3.111   6.380
13590SOL    HW244565   4.854   3.264   6.399
13591SOL     OW44566   4.043   2.672   6.535
13591SOL    HW144567   4.136   2.708   6.540
13591SOL    HW244568   4.037   2.587   6.587
13592SOL     OW44569   4.063   2.371   6.592
13592SOL    HW144570   4.011   2.288   6.575
13592SOL    HW244571   4.140   2.376   6.528
13593SOL     OW44572   4.862   2.242   7.264
13593SOL    HW144573   4.817   2.305   7.328
13593SOL    HW244574   4.955   2.273   7.247
13594SOL     OW44575   4.884   2.069   7.063
13594SOL    HW144576   4.884   2.133   7.140
13594SOL    HW244577   4.912   2.117   6.980
13595SOL     OW44578   3.732   3.188   5.786
13595SOL    HW144579   3.639   3.209   5.755
13595SOL    HW244580   3.742   3.089   5.799
13596SOL     OW44581   3.812   3.663   6.513
13596SOL    HW144582   3.770   3.577   6.486
13596SOL    HW244583   3.906   3.666   6.479
13597SOL     OW44584   4.228   3.430   6.496
13597SOL    HW144585   4.294   3.504   6.505
13597SOL    HW244586   4.272   3.351   6.454
13598SOL     OW44587   4.726   2.658   6.824
13598SOL    HW144588   4.767   2.626   6.910
13598SOL    HW244589   4.630   2.631   6.821
13599SOL     OW44590   3.764   2.406   6.700
13599SOL    HW144591   3.849   2.373   6.659
13599SOL    HW244592   3.777   2.421   6.798
13600SOL     OW44593   3.913   2.382   7.308
13600SOL    HW144594   3.972   2.342   7.238
13600SOL    HW244595   3.855   2.453   7.267
13601SOL     OW44596   5.093   2.812   7.246
13601SOL    HW144597   5.132   2.901   7.266
13601SOL    HW244598   5.103   2.792   7.149
13602SOL     OW44599   4.539   2.434   5.911
13602SOL    HW144600   4.546   2.345   5.865
13602SOL    HW244601   4.445   2.468   5.903
13603SOL     OW44602   5.381   2.466   6.792
13603SOL    HW144603   5.343   2.397   6.854
13603SOL    HW244604   5.463   2.430   6.748
13604SOL     OW44605   3.976   3.426   7.330
13604SOL    HW144606   3.946   3.483   7.406
13604SOL    HW244607   3.969   3.329   7.356
13605SOL     OW44608   4.395   2.326   6.855
13605SOL    HW144609   4.361   2.237   6.825
13605SOL    HW244610   4.421   2.380   6.775
13606SOL     OW44611   4.654   3.540   7.051
13606SOL    HW144612   4.630   3.522   6.956
13606SOL    HW244613   4.684   3.634   7.061
13607SOL     OW44614   4.197   2.362   5.777
13607SOL    HW144615   4.258   2.442   5.781
13607SOL    HW244616   4.102   2.393   5.784
13608SOL     OW44617   3.883   2.999   7.052
13608SOL    HW144618   3.905   2.938   7.128
13608SOL    HW244619   3.893   2.950   6.966
13609SOL     OW44620   5.071   2.921   6.820
13609SOL    HW144621   5.095   2.858   6.746
13609SOL    HW244622   4.981   2.961   6.802
13610SOL     OW44623   5.026   2.717   5.895
13610SOL    HW144624   4.940   2.686   5.937
13610SOL    HW244625   5.022   2.703   5.796
13611SOL     OW44626   5.483   3.609   6.740
13611SOL    HW144627   5.544   3.639   6.667
13611SOL    HW244628   5.445   3.520   6.718
13612SOL     OW44629   4.976   3.593   6.714
13612SOL    HW144630   5.060   3.598   6.660
13612SOL    HW244631   4.953   3.497   6.732
13613SOL     OW44632   3.807   3.120   6.608
13613SOL    HW144633   3.802   3.119   6.708
13613SOL    HW244634   3.724   3.079   6.570
13614SOL     OW44635   4.412   3.524   7.302
13614SOL    HW144636   4.356   3.605   7.311
13614SOL    HW244637   4.464   3.528   7.216
13615SOL     OW44638   5.450   1.997   6.109
13615SOL    HW144639   5.523   1.980   6.042
13615SOL    HW244640   5.419   1.910   6.147
13616SOL     OW44641   5.112   3.435   6.063
13616SOL    HW144642   5.179   3.447   5.989
13616SOL    HW244643   5.072   3.524   6.086
13617SOL     OW44644   3.854   3.656   7.437
13617SOL    HW144645   3.813   3.582   7.490
13617SOL    HW244646   3.918   3.707   7.495
13618SOL     OW44647   5.004   2.789   6.258
13618SOL    HW144648   5.064   2.708   6.260
13618SOL    HW244649   5.044   2.858   6.198
13619SOL     OW44650   4.554   3.135   7.008
13619SOL    HW144651   4.549   3.168   7.103
13619SOL    HW244652   4.468   3.154   6.962
13620SOL     OW44653   4.396   3.478   5.740
13620SOL    HW144654   4.405   3.488   5.641
13620SOL    HW244655   4.356   3.389   5.761
13621SOL     OW44656   5.374   3.582   6.980
13621SOL    HW144657   5.427   3.592   6.896
13621SOL    HW244658   5.347   3.672   7.014
13622SOL     OW44659   5.565   2.037   6.549
13622SOL    HW144660   5.604   1.952   6.513
13622SOL    HW244661   5.467   2.039   6.530
13623SOL     OW44662   3.987   2.188   6.306
13623SOL    HW144663   3.908   2.239   6.272
13623SOL    HW244664   3.978   2.173   6.404
13624SOL     OW44665   4.918   3.474   5.617
13624SOL    HW144666   4.924   3.381   5.654
13624SOL    HW244667   4.859   3.474   5.537
13625SOL     OW44668   4.546   2.864   6.958
13625SOL    HW144669   4.586   2.863   6.866
13625SOL    HW244670   4.556   2.956   6.998
13626SOL     OW44671   4.640   2.772   5.877
13626SOL    HW144672   4.703   2.810   5.809
13626SOL    HW244673   4.680   2.689   5.916
13627SOL     OW44674   5.228   3.469   5.630
13627SOL    HW144675   5.136   3.506   5.637
13627SOL    HW244676   5.266   3.489   5.540
13628SOL     OW44677   4.096   3.150   7.076
13628SOL    HW144678   4.083   3.243   7.042
13628SOL    HW244679   4.012   3.098   7.063
13629SOL     OW44680   5.338   3.154   6.875
13629SOL    HW144681   5.398   3.157   6.955
13629SOL    HW244682   5.263   3.218   6.888
13630SOL     OW44683   4.763   2.960   6.282
13630SOL    HW144684   4.693   2.913   6.336
13630SOL    HW244685   4.822   2.892   6.239
13631SOL     OW44686   4.738   2.098   6.557
13631SOL    HW144687   4.730   2.062   6.464
13631SOL    HW244688   4.736   2.022   6.622
13632SOL     OW44689   4.314   3.349   6.077
13632SOL    HW144690   4.356   3.291   6.007
13632SOL    HW244691   4.270   3.428   6.033
13633SOL     OW44692   5.433   2.247   6.967
13633SOL    HW144693   5.506   2.316   6.971
13633SOL    HW244694   5.461   2.172   6.908
13634SOL     OW44695   3.979   3.210   5.876
13634SOL    HW144696   3.883   3.211   5.849
13634SOL    HW244697   3.991   3.263   5.960
13635SOL     OW44698   3.829   2.875   7.312
13635SOL    HW144699   3.752   2.842   7.366
13635SOL    HW244700   3.914   2.845   7.354
13636SOL     OW44701   4.396   2.065   7.075
13636SOL    HW144702   4.486   2.049   7.035
13636SOL    HW244703   4.404   2.070   7.174
13637SOL     OW44704   3.799   2.207   5.619
13637SOL    HW144705   3.707   2.179   5.590
13637SOL    HW244706   3.830   2.284   5.563
13638SOL     OW44707   5.164   2.718   6.984
13638SOL    HW144708   5.107   2.770   6.921
13638SOL    HW244709   5.260   2.730   6.960
13639SOL     OW44710   3.796   2.028   5.904
13639SOL    HW144711   3.779   2.111   5.850
13639SOL    HW244712   3.886   1.991   5.882
13640SOL     OW44713   4.907   3.197   5.705
13640SOL    HW144714   4.808   3.186   5.707
13640SOL    HW244715   4.941   3.212   5.798
13641SOL     OW44716   4.337   2.704   7.017
13641SOL    HW144717   4.393   2.785   7.000
13641SOL    HW244718   4.396   2.624   7.020
13642SOL     OW44719   5.217   3.629   6.545
13642SOL    HW144720   5.250   3.693   6.476
13642SOL    HW244721   5.283   3.623   6.620
13643SOL     OW44722   4.440   2.427   7.294
13643SOL    HW144723   4.459   2.492   7.368
13643SOL    HW244724   4.500   2.347   7.303
13644SOL     OW44725   5.174   3.082   7.219
13644SOL    HW144726   5.165   3.072   7.318
13644SOL    HW244727   5.270   3.075   7.193
13645SOL     OW44728   4.114   3.603   7.146
13645SOL    HW144729   4.023   3.644   7.144
13645SOL    HW244730   4.107   3.509   7.178
13646SOL     OW44731   5.398   2.745   6.840
13646SOL    HW144732   5.371   2.656   6.803
13646SOL    HW244733   5.399   2.813   6.767
13647SOL     OW44734   4.949   2.187   6.035
13647SOL    HW144735   5.014   2.113   6.024
13647SOL    HW244736   4.969   2.237   6.119
13648SOL     OW44737   4.318   2.607   6.238
13648SOL    HW144738   4.368   2.692   6.219
13648SOL    HW244739   4.230   2.609   6.190
13649SOL     OW44740   5.501   2.204   7.228
13649SOL    HW144741   5.484   2.235   7.134
13649SOL    HW244742   5.417   2.167   7.266
13650SOL     OW44743   5.454   2.796   7.103
13650SOL    HW144744   5.492   2.887   7.118
13650SOL    HW244745   5.446   2.779   7.004
13651SOL     OW44746   4.583   3.236   5.602
13651SOL    HW144747   4.537   3.251   5.690
13651SOL    HW244748   4.627   3.321   5.572
13652SOL     OW44749   4.385   3.652   6.539
13652SOL    HW144750   4.339   3.740   6.526
13652SOL    HW244751   4.484   3.664   6.532
13653SOL     OW44752   4.583   2.818   6.447
13653SOL    HW144753   4.637   2.749   6.495
13653SOL    HW244754   4.551   2.887   6.513
13654SOL     OW44755   4.807   2.846   5.673
13654SOL    HW144756   4.784   2.899   5.591
13654SOL    HW244757   4.888   2.790   5.654
13655SOL     OW44758   5.585   3.431   6.437
13655SOL    HW144759   5.514   3.419   6.367
13655SOL    HW244760   5.586   3.352   6.497
13656SOL     OW44761   3.945   3.176   7.430
13656SOL    HW144762   3.880   3.103   7.409
13656SOL    HW244763   3.949   3.190   7.528
13657SOL     OW44764   3.803   3.102   6.239
13657SOL    HW144765   3.802   3.055   6.327
13657SOL    HW244766   3.885   3.074   6.188
13658SOL     OW44767   4.396   3.253   7.210
13658SOL    HW144768   4.318   3.203   7.248
13658SOL    HW244769   4.393   3.348   7.241
13659SOL     OW44770   5.548   2.054   6.813
13659SOL    HW144771   5.544   1.964   6.857
13659SOL    HW244772   5.551   2.043   6.714
13660SOL     OW44773   4.152   2.286   6.106
13660SOL    HW144774   4.182   2.214   6.044
13660SOL    HW244775   4.113   2.246   6.189
13661SOL     OW44776   5.429   3.349   6.690
13661SOL    HW144777   5.336   3.324   6.663
13661SOL    HW244778   5.455   3.299   6.772
13662SOL     OW44779   4.041   2.409   6.866
13662SOL    HW144780   4.079   2.350   6.938
13662SOL    HW244781   4.081   2.383   6.778
13663SOL     OW44782   4.536   3.448   6.273
13663SOL    HW144783   4.568   3.458   6.179
13663SOL    HW244784   4.457   3.386   6.275
13664SOL     OW44785   5.148   2.076   6.698
13664SOL    HW144786   5.200   2.011   6.753
13664SOL    HW244787   5.099   2.139   6.759
13665SOL     OW44788   4.725   1.896   6.740
13665SOL    HW144789   4.662   1.824   6.709
13665SOL    HW244790   4.818   1.860   6.740
13666SOL     OW44791   4.494   3.192   5.887
13666SOL    HW144792   4.448   3.105   5.904
13666SOL    HW244793   4.585   3.189   5.928
13667SOL     OW44794   4.342   3.429   6.870
13667SOL    HW144795   4.337   3.511   6.927
13667SOL    HW244796   4.431   3.426   6.825
13668SOL     OW44797   5.076   1.914   5.754
13668SOL    HW144798   5.111   1.873   5.670
13668SOL    HW244799   4.986   1.876   5.774
13669SOL     OW44800   5.024   2.315   6.277
13669SOL    HW144801   4.965   2.395   6.281
13669SOL    HW244802   5.039   2.280   6.370
13670SOL     OW44803   5.317   2.083   6.468
13670SOL    HW144804   5.233   2.082   6.522
13670SOL    HW244805   5.319   2.166   6.412
13671SOL     OW44806   3.763   2.939   5.886
13671SOL    HW144807   3.862   2.928   5.877
13671SOL    HW244808   3.723   2.853   5.918
13672SOL     OW44809   4.599   3.508   5.923
13672SOL    HW144810   4.522   3.473   5.869
13672SOL    HW244811   4.567   3.579   5.985
13673SOL     OW44812   3.954   2.490   7.561
13673SOL    HW144813   3.861   2.488   7.598
13673SOL    HW244814   3.955   2.451   7.469
13674SOL     OW44815   3.949   2.137   8.444
13674SOL    HW144816   3.984   2.120   8.536
13674SOL    HW244817   3.861   2.092   8.432
13675SOL     OW44818   3.743   2.230   8.095
13675SOL    HW144819   3.661   2.273   8.134
13675SOL    HW244820   3.715   2.157   8.032
13676SOL     OW44821   4.293   3.137   8.613
13676SOL    HW144822   4.200   3.130   8.576
13676SOL    HW244823   4.304   3.226   8.657
13677SOL     OW44824   5.279   3.373   8.151
13677SOL    HW144825   5.222   3.357   8.232
13677SOL    HW244826   5.220   3.383   8.071
13678SOL     OW44827   4.859   2.565   8.165
13678SOL    HW144828   4.916   2.643   8.140
13678SOL    HW244829   4.799   2.591   8.241
13679SOL     OW44830   5.479   2.469   7.679
13679SOL    HW144831   5.467   2.456   7.580
13679SOL    HW244832   5.449   2.388   7.728
13680SOL     OW44833   4.492   3.006   8.471
13680SOL    HW144834   4.414   3.023   8.531
13680SOL    HW244835   4.526   3.093   8.435
13681SOL     OW44836   4.574   2.660   9.271
13681SOL    HW144837   4.570   2.736   9.336
13681SOL    HW244838   4.596   2.696   9.180
13682SOL     OW44839   4.409   2.874   8.113
13682SOL    HW144840   4.478   2.858   8.183
13682SOL    HW244841   4.336   2.931   8.151
13683SOL     OW44842   4.410   3.023   9.251
13683SOL    HW144843   4.470   3.102   9.265
13683SOL    HW244844   4.324   3.054   9.210
13684SOL     OW44845   4.059   3.297   8.509
13684SOL    HW144846   3.981   3.266   8.456
13684SOL    HW244847   4.117   3.355   8.452
13685SOL     OW44848   5.184   3.367   8.787
13685SOL    HW144849   5.208   3.461   8.813
13685SOL    HW244850   5.168   3.313   8.869
13686SOL     OW44851   5.327   2.309   8.185
13686SOL    HW144852   5.253   2.355   8.135
13686SOL    HW244853   5.378   2.377   8.238
13687SOL     OW44854   3.955   3.575   7.931
13687SOL    HW144855   3.989   3.652   7.985
13687SOL    HW244856   3.999   3.575   7.841
13688SOL     OW44857   4.851   3.203   9.138
13688SOL    HW144858   4.898   3.203   9.226
13688SOL    HW244859   4.803   3.116   9.127
13689SOL     OW44860   3.954   3.296   7.986
13689SOL    HW144861   3.928   3.392   7.986
13689SOL    HW244862   3.883   3.242   8.031
13690SOL     OW44863   3.964   2.953   8.334
13690SOL    HW144864   3.978   2.869   8.386
13690SOL    HW244865   3.909   3.017   8.389
13691SOL     OW44866   4.344   3.648   8.887
13691SOL    HW144867   4.252   3.631   8.922
13691SOL    HW244868   4.372   3.740   8.913
13692SOL     OW44869   4.330   2.826   7.571
13692SOL    HW144870   4.337   2.910   7.517
13692SOL    HW244871   4.376   2.839   7.659
13693SOL     OW44872   5.318   1.976   8.928
13693SOL    HW144873   5.300   2.043   8.856
13693SOL    HW244874   5.315   2.022   9.017
13694SOL     OW44875   3.846   2.505   8.011
13694SOL    HW144876   3.801   2.417   8.028
13694SOL    HW244877   3.845   2.559   8.095
13695SOL     OW44878   5.566   3.629   7.807
13695SOL    HW144879   5.620   3.600   7.887
13695SOL    HW244880   5.596   3.719   7.778
13696SOL     OW44881   3.751   3.458   7.565
13696SOL    HW144882   3.732   3.362   7.586
13696SOL    HW244883   3.718   3.516   7.640
13697SOL     OW44884   5.413   2.784   8.060
13697SOL    HW144885   5.508   2.755   8.068
13697SOL    HW244886   5.405   2.849   7.985
13698SOL     OW44887   5.365   2.970   7.880
13698SOL    HW144888   5.451   2.972   7.828
13698SOL    HW244889   5.379   3.017   7.968
13699SOL     OW44890   4.337   3.227   8.174
13699SOL    HW144891   4.288   3.140   8.183
13699SOL    HW244892   4.314   3.270   8.087
13700SOL     OW44893   5.017   3.090   8.871
13700SOL    HW144894   5.054   3.017   8.813
13700SOL    HW244895   5.069   3.095   8.956
13701SOL     OW44896   4.533   1.866   7.950
13701SOL    HW144897   4.573   1.957   7.941
13701SOL    HW244898   4.433   1.874   7.956
13702SOL     OW44899   3.921   2.838   8.712
13702SOL    HW144900   4.010   2.793   8.698
13702SOL    HW244901   3.848   2.773   8.693
13703SOL     OW44902   5.249   2.861   7.638
13703SOL    HW144903   5.186   2.785   7.651
13703SOL    HW244904   5.297   2.879   7.724
13704SOL     OW44905   4.911   3.654   9.064
13704SOL    HW144906   4.935   3.714   8.988
13704SOL    HW244907   4.918   3.559   9.034
13705SOL     OW44908   5.190   3.279   8.401
13705SOL    HW144909   5.131   3.285   8.481
13705SOL    HW244910   5.175   3.191   8.355
13706SOL     OW44911   5.391   3.576   8.020
13706SOL    HW144912   5.350   3.553   7.932
13706SOL    HW244913   5.373   3.502   8.085
13707SOL     OW44914   4.322   2.591   7.718
13707SOL    HW144915   4.346   2.660   7.650
13707SOL    HW244916   4.244   2.624   7.772
13708SOL     OW44917   5.005   2.207   8.392
13708SOL    HW144918   4.919   2.157   8.379
13708SOL    HW244919   5.067   2.153   8.448
13709SOL     OW44920   5.300   3.524   7.755
13709SOL    HW144921   5.389   3.570   7.758
13709SOL    HW244922   5.279   3.500   7.660
13710SOL     OW44923   4.531   2.467   8.913
13710SOL    HW144924   4.484   2.464   9.002
13710SOL    HW244925   4.480   2.412   8.847
13711SOL     OW44926   5.118   2.331   9.122
13711SOL    HW144927   5.098   2.374   9.210
13711SOL    HW244928   5.196   2.269   9.131
13712SOL     OW44929   4.697   2.752   9.020
13712SOL    HW144930   4.743   2.668   8.991
13712SOL    HW244931   4.641   2.786   8.945
13713SOL     OW44932   4.715   2.272   8.690
13713SOL    HW144933   4.638   2.306   8.744
13713SOL    HW244934   4.681   2.221   8.611
13714SOL     OW44935   4.765   2.563   7.877
13714SOL    HW144936   4.791   2.559   7.973
13714SOL    HW244937   4.680   2.512   7.863
13715SOL     OW44938   3.800   2.673   8.237
13715SOL    HW144939   3.899   2.661   8.246
13715SOL    HW244940   3.776   2.768   8.258
13716SOL     OW44941   3.854   3.683   9.019
13716SOL    HW144942   3.844   3.668   9.118
13716SOL    HW244943   3.768   3.719   8.983
13717SOL     OW44944   4.589   2.210   7.643
13717SOL    HW144945   4.648   2.273   7.594
13717SOL    HW244946   4.608   2.116   7.614
13718SOL     OW44947   5.443   2.447   9.279
13718SOL    HW144948   5.417   2.536   9.243
13718SOL    HW244949   5.441   2.379   9.206
13719SOL     OW44950   5.086   3.006   7.993
13719SOL    HW144951   5.169   2.977   7.945
13719SOL    HW244952   5.037   3.073   7.937
13720SOL     OW44953   4.274   2.058   8.333
13720SOL    HW144954   4.269   2.053   8.433
13720SOL    HW244955   4.276   2.154   8.304
13721SOL     OW44956   4.732   3.318   7.925
13721SOL    HW144957   4.686   3.390   7.873
13721SOL    HW244958   4.728   3.338   8.023
13722SOL     OW44959   4.075   3.663   8.301
13722SOL    HW144960   4.125   3.577   8.307
13722SOL    HW244961   4.140   3.740   8.298
13723SOL     OW44962   5.519   2.928   8.321
13723SOL    HW144963   5.457   2.913   8.245
13723SOL    HW244964   5.467   2.939   8.406
13724SOL     OW44965   4.951   3.412   8.954
13724SOL    HW144966   4.957   3.335   9.018
13724SOL    HW244967   4.899   3.386   8.874
13725SOL     OW44968   4.045   2.805   7.690
13725SOL    HW144969   4.127   2.844   7.648
13725SOL    HW244970   4.018   2.723   7.641
13726SOL     OW44971   5.182   2.597   8.176
13726SOL    HW144972   5.177   2.532   8.251
13726SOL    HW244973   5.262   2.656   8.189
13727SOL     OW44974   4.185   3.128   9.175
13727SOL    HW144975   4.135   3.129   9.089
13727SOL    HW244976   4.122   3.110   9.251
13728SOL     OW44977   4.835   3.638   7.685
13728SOL    HW144978   4.775   3.576   7.735
13728SOL    HW244979   4.866   3.594   7.600
13729SOL     OW44980   3.926   2.147   8.946
13729SOL    HW144981   3.846   2.207   8.933
13729SOL    HW244982   3.916   2.098   9.032
13730SOL     OW44983   5.356   3.239   7.529
13730SOL    HW144984   5.324   3.333   7.519
13730SOL    HW244985   5.280   3.176   7.517
13731SOL     OW44986   4.188   3.605   7.771
13731SOL    HW144987   4.221   3.644   7.857
13731SOL    HW244988   4.264   3.598   7.706
13732SOL     OW44989   5.124   1.969   7.874
13732SOL    HW144990   5.100   1.932   7.784
13732SOL    HW244991   5.223   1.985   7.878
13733SOL     OW44992   3.973   3.647   8.689
13733SOL    HW144993   4.030   3.582   8.739
13733SOL    HW244994   3.957   3.614   8.596
13734SOL     OW44995   4.664   3.560   8.352
13734SOL    HW144996   4.744   3.503   8.373
13734SOL    HW244997   4.615   3.520   8.275
13735SOL     OW44998   4.106   2.562   7.928
13735SOL    HW144999   4.151   2.472   7.925
13735SOL    HW245000   4.012   2.551   7.961
13736SOL     OW45001   5.271   2.084   9.177
13736SOL    HW145002   5.266   2.121   9.269
13736SOL    HW245003   5.199   2.015   9.165
13737SOL     OW45004   4.338   1.984   7.565
13737SOL    HW145005   4.436   1.962   7.572
13737SOL    HW245006   4.307   1.967   7.472
13738SOL     OW45007   4.505   2.126   9.197
13738SOL    HW145008   4.572   2.065   9.240
13738SOL    HW245009   4.432   2.145   9.262
13739SOL     OW45010   4.612   3.376   8.643
13739SOL    HW145011   4.589   3.351   8.549
13739SOL    HW245012   4.673   3.307   8.682
13740SOL     OW45013   5.075   2.452   8.881
13740SOL    HW145014   5.103   2.409   8.966
13740SOL    HW245015   5.100   2.548   8.882
13741SOL     OW45016   4.527   3.264   8.372
13741SOL    HW145017   4.617   3.278   8.330
13741SOL    HW245018   4.456   3.266   8.301
13742SOL     OW45019   4.646   2.365   8.347
13742SOL    HW145020   4.621   2.356   8.251
13742SOL    HW245021   4.694   2.283   8.378
13743SOL     OW45022   4.263   1.926   7.960
13743SOL    HW145023   4.182   1.927   8.018
13743SOL    HW245024   4.266   2.009   7.905
13744SOL     OW45025   5.158   3.050   7.489
13744SOL    HW145026   5.190   2.974   7.546
13744SOL    HW245027   5.066   3.077   7.519
13745SOL     OW45028   4.021   1.897   7.619
13745SOL    HW145029   4.070   1.981   7.598
13745SOL    HW245030   4.083   1.832   7.664
13746SOL     OW45031   4.659   2.098   7.928
13746SOL    HW145032   4.611   2.139   7.850
13746SOL    HW245033   4.758   2.096   7.909
13747SOL     OW45034   4.800   2.545   8.912
13747SOL    HW145035   4.720   2.484   8.915
13747SOL    HW245036   4.881   2.492   8.888
13748SOL     OW45037   4.951   3.432   8.241
13748SOL    HW145038   4.972   3.506   8.176
13748SOL    HW245039   5.019   3.432   8.314
13749SOL     OW45040   4.183   3.014   8.189
13749SOL    HW145041   4.112   2.987   8.254
13749SOL    HW245042   4.157   2.986   8.096
13750SOL     OW45043   4.995   3.659   8.039
13750SOL    HW145044   5.039   3.723   7.975
13750SOL    HW245045   4.945   3.711   8.109
13751SOL     OW45046   4.756   2.411   7.464
13751SOL    HW145047   4.715   2.493   7.425
13751SOL    HW245048   4.820   2.437   7.537
13752SOL     OW45049   3.802   2.418   8.834
13752SOL    HW145050   3.894   2.417   8.793
13752SOL    HW245051   3.796   2.492   8.901
13753SOL     OW45052   4.285   2.084   8.595
13753SOL    HW145053   4.323   2.000   8.632
13753SOL    HW245054   4.197   2.103   8.639
13754SOL     OW45055   4.590   2.316   8.090
13754SOL    HW145056   4.558   2.388   8.028
13754SOL    HW245057   4.614   2.235   8.037
13755SOL     OW45058   4.741   1.901   8.201
13755SOL    HW145059   4.669   1.906   8.132
13755SOL    HW245060   4.717   1.832   8.270
13756SOL     OW45061   5.153   3.035   8.315
13756SOL    HW145062   5.098   2.951   8.308
13756SOL    HW245063   5.179   3.064   8.223
13757SOL     OW45064   5.190   2.452   8.440
13757SOL    HW145065   5.160   2.357   8.447
13757SOL    HW245066   5.263   2.468   8.506
13758SOL     OW45067   5.581   2.695   7.825
13758SOL    HW145068   5.623   2.631   7.889
13758SOL    HW245069   5.543   2.644   7.747
13759SOL     OW45070   4.212   3.247   7.622
13759SOL    HW145071   4.125   3.232   7.669
13759SOL    HW245072   4.195   3.273   7.527
13760SOL     OW45073   5.388   3.142   8.105
13760SOL    HW145074   5.487   3.150   8.119
13760SOL    HW245075   5.343   3.226   8.136
13761SOL     OW45076   5.114   2.437   7.526
13761SOL    HW145077   5.060   2.416   7.607
13761SOL    HW245078   5.205   2.396   7.535
13762SOL     OW45079   4.251   2.118   7.776
13762SOL    HW145080   4.278   2.059   7.701
13762SOL    HW245081   4.251   2.213   7.745
13763SOL     OW45082   5.478   3.085   9.036
13763SOL    HW145083   5.569   3.046   9.023
13763SOL    HW245084   5.486   3.181   9.060
13764SOL     OW45085   4.788   3.209   8.788
13764SOL    HW145086   4.708   3.186   8.843
13764SOL    HW245087   4.871   3.183   8.837
13765SOL     OW45088   5.316   3.491   9.073
13765SOL    HW145089   5.343   3.525   8.983
13765SOL    HW245090   5.395   3.453   9.119
13766SOL     OW45091   4.835   3.057   8.548
13766SOL    HW145092   4.795   3.101   8.629
13766SOL    HW245093   4.794   3.094   8.465
13767SOL     OW45094   5.362   2.961   8.527
13767SOL    HW145095   5.367   3.042   8.586
13767SOL    HW245096   5.276   2.963   8.476
13768SOL     OW45097   4.704   2.978   9.167
13768SOL    HW145098   4.605   2.984   9.177
13768SOL    HW245099   4.727   2.898   9.111
13769SOL     OW45100   4.429   2.912   7.816
13769SOL    HW145101   4.415   2.919   7.915
13769SOL    HW245102   4.513   2.861   7.798
13770SOL     OW45103   4.134   2.675   8.699
13770SOL    HW145104   4.220   2.687   8.749
13770SOL    HW245105   4.092   2.588   8.726
13771SOL     OW45106   4.998   2.248   8.710
13771SOL    HW145107   5.019   2.322   8.774
13771SOL    HW245108   4.909   2.265   8.667
13772SOL     OW45109   3.788   3.426   8.779
13772SOL    HW145110   3.742   3.508   8.745
13772SOL    HW245111   3.886   3.445   8.788
13773SOL     OW45112   4.091   2.962   7.949
13773SOL    HW145113   4.084   3.045   7.893
13773SOL    HW245114   4.095   2.882   7.889
13774SOL     OW45115   4.290   2.399   8.313
13774SOL    HW145116   4.302   2.465   8.239
13774SOL    HW245117   4.336   2.433   8.396
13775SOL     OW45118   4.976   3.210   7.836
13775SOL    HW145119   5.026   3.287   7.876
13775SOL    HW245120   4.881   3.212   7.868
13776SOL     OW45121   4.996   3.307   8.590
13776SOL    HW145122   5.043   3.320   8.677
13776SOL    HW245123   4.930   3.233   8.599
13777SOL     OW45124   5.306   2.501   7.920
13777SOL    HW145125   5.275   2.562   7.993
13777SOL    HW245126   5.356   2.553   7.851
13778SOL     OW45127   4.078   3.372   8.777
13778SOL    HW145128   4.057   3.328   8.690
13778SOL    HW245129   4.175   3.398   8.780
13779SOL     OW45130   5.311   2.641   9.118
13779SOL    HW145131   5.219   2.679   9.113
13779SOL    HW245132   5.371   2.688   9.053
13780SOL     OW45133   4.737   1.967   9.218
13780SOL    HW145134   4.743   2.052   9.166
13780SOL    HW245135   4.769   1.891   9.161
13781SOL     OW45136   4.228   1.912   9.188
13781SOL    HW145137   4.186   1.855   9.118
13781SOL    HW245138   4.162   1.981   9.220
13782SOL     OW45139   4.297   2.732   8.477
13782SOL    HW145140   4.341   2.821   8.468
13782SOL    HW245141   4.234   2.732   8.554
13783SOL     OW45142   5.084   2.724   8.493
13783SOL    HW145143   5.009   2.724   8.427
13783SOL    HW245144   5.121   2.632   8.502
13784SOL     OW45145   4.933   2.387   7.723
13784SOL    HW145146   4.946   2.303   7.777
13784SOL    HW245147   4.904   2.461   7.783
13785SOL     OW45148   4.031   2.075   8.679
13785SOL    HW145149   4.008   2.112   8.769
13785SOL    HW245150   4.001   1.980   8.673
13786SOL     OW45151   3.761   3.172   8.730
13786SOL    HW145152   3.814   3.123   8.798
13786SOL    HW245153   3.783   3.270   8.735
13787SOL     OW45154   4.456   2.496   8.512
13787SOL    HW145155   4.515   2.470   8.436
13787SOL    HW245156   4.428   2.592   8.501
13788SOL     OW45157   5.452   2.797   9.302
13788SOL    HW145158   5.406   2.790   9.213
13788SOL    HW245159   5.390   2.841   9.368
13789SOL     OW45160   4.031   1.925   8.066
13789SOL    HW145161   4.020   2.019   8.099
13789SOL    HW245162   4.026   1.862   8.143
13790SOL     OW45163   5.346   2.229   7.822
13790SOL    HW145164   5.348   2.153   7.886
13790SOL    HW245165   5.298   2.306   7.862
13791SOL     OW45166   4.747   2.628   8.414
13791SOL    HW145167   4.762   2.649   8.510
13791SOL    HW245168   4.717   2.533   8.405
13792SOL     OW45169   4.704   3.435   9.148
13792SOL    HW145170   4.684   3.479   9.060
13792SOL    HW245171   4.743   3.344   9.132
13793SOL     OW45172   5.583   3.380   9.053
13793SOL    HW145173   5.597   3.407   8.958
13793SOL    HW245174   5.666   3.402   9.106
13794SOL     OW45175   4.074   2.760   9.252
13794SOL    HW145176   4.150   2.804   9.300
13794SOL    HW245177   4.109   2.713   9.170
13795SOL     OW45178   5.264   2.136   7.573
13795SOL    HW145179   5.203   2.061   7.596
13795SOL    HW245180   5.286   2.188   7.656
13796SOL     OW45181   5.027   2.700   7.490
13796SOL    HW145182   5.061   2.607   7.505
13796SOL    HW245183   5.045   2.727   7.395
13797SOL     OW45184   4.792   3.195   8.297
13797SOL    HW145185   4.799   3.111   8.242
13797SOL    HW245186   4.854   3.264   8.261
13798SOL     OW45187   4.043   2.672   8.397
13798SOL    HW145188   4.136   2.708   8.402
13798SOL    HW245189   4.037   2.587   8.449
13799SOL     OW45190   4.063   2.371   8.454
13799SOL    HW145191   4.011   2.288   8.437
13799SOL    HW245192   4.140   2.376   8.390
13800SOL     OW45193   4.862   2.242   9.126
13800SOL    HW145194   4.817   2.305   9.190
13800SOL    HW245195   4.955   2.273   9.109
13801SOL     OW45196   4.884   2.069   8.925
13801SOL    HW145197   4.884   2.133   9.002
13801SOL    HW245198   4.912   2.117   8.842
13802SOL     OW45199   3.732   3.188   7.648
13802SOL    HW145200   3.639   3.209   7.617
13802SOL    HW245201   3.742   3.089   7.661
13803SOL     OW45202   3.812   3.663   8.375
13803SOL    HW145203   3.770   3.577   8.348
13803SOL    HW245204   3.906   3.666   8.341
13804SOL     OW45205   4.228   3.430   8.358
13804SOL    HW145206   4.294   3.504   8.367
13804SOL    HW245207   4.272   3.351   8.316
13805SOL     OW45208   4.726   2.658   8.686
13805SOL    HW145209   4.767   2.626   8.772
13805SOL    HW245210   4.630   2.631   8.683
13806SOL     OW45211   3.764   2.406   8.562
13806SOL    HW145212   3.849   2.373   8.521
13806SOL    HW245213   3.777   2.421   8.660
13807SOL     OW45214   5.093   2.812   9.108
13807SOL    HW145215   5.132   2.901   9.128
13807SOL    HW245216   5.103   2.792   9.011
13808SOL     OW45217   4.539   2.434   7.773
13808SOL    HW145218   4.546   2.345   7.727
13808SOL    HW245219   4.445   2.468   7.765
13809SOL     OW45220   5.381   2.466   8.654
13809SOL    HW145221   5.343   2.397   8.716
13809SOL    HW245222   5.463   2.430   8.610
13810SOL     OW45223   3.976   3.426   9.192
13810SOL    HW145224   3.946   3.483   9.268
13810SOL    HW245225   3.969   3.329   9.218
13811SOL     OW45226   4.395   2.326   8.717
13811SOL    HW145227   4.361   2.237   8.687
13811SOL    HW245228   4.421   2.380   8.637
13812SOL     OW45229   4.654   3.540   8.913
13812SOL    HW145230   4.630   3.522   8.818
13812SOL    HW245231   4.684   3.634   8.923
13813SOL     OW45232   4.197   2.362   7.639
13813SOL    HW145233   4.258   2.442   7.643
13813SOL    HW245234   4.102   2.393   7.646
13814SOL     OW45235   3.883   2.999   8.914
13814SOL    HW145236   3.905   2.938   8.990
13814SOL    HW245237   3.893   2.950   8.828
13815SOL     OW45238   5.071   2.921   8.682
13815SOL    HW145239   5.095   2.858   8.608
13815SOL    HW245240   4.981   2.961   8.664
13816SOL     OW45241   5.026   2.717   7.757
13816SOL    HW145242   4.940   2.686   7.799
13816SOL    HW245243   5.022   2.703   7.658
13817SOL     OW45244   5.483   3.609   8.602
13817SOL    HW145245   5.544   3.639   8.529
13817SOL    HW245246   5.445   3.520   8.580
13818SOL     OW45247   4.976   3.593   8.576
13818SOL    HW145248   5.060   3.598   8.522
13818SOL    HW245249   4.953   3.497   8.594
13819SOL     OW45250   3.807   3.120   8.470
13819SOL    HW145251   3.802   3.119   8.570
13819SOL    HW245252   3.724   3.079   8.432
13820SOL     OW45253   4.412   3.524   9.164
13820SOL    HW145254   4.356   3.605   9.173
13820SOL    HW245255   4.464   3.528   9.078
13821SOL     OW45256   5.450   1.997   7.971
13821SOL    HW145257   5.523   1.980   7.904
13821SOL    HW245258   5.419   1.910   8.009
13822SOL     OW45259   5.112   3.435   7.925
13822SOL    HW145260   5.179   3.447   7.851
13822SOL    HW245261   5.072   3.524   7.948
13823SOL     OW45262   3.854   3.656   9.299
13823SOL    HW145263   3.813   3.582   9.352
13823SOL    HW245264   3.918   3.707   9.357
13824SOL     OW45265   5.004   2.789   8.120
13824SOL    HW145266   5.064   2.708   8.122
13824SOL    HW245267   5.044   2.858   8.060
13825SOL     OW45268   4.554   3.135   8.870
13825SOL    HW145269   4.549   3.168   8.965
13825SOL    HW245270   4.468   3.154   8.824
13826SOL     OW45271   4.396   3.478   7.602
13826SOL    HW145272   4.405   3.488   7.503
13826SOL    HW245273   4.356   3.389   7.623
13827SOL     OW45274   5.374   3.582   8.842
13827SOL    HW145275   5.427   3.592   8.758
13827SOL    HW245276   5.347   3.672   8.876
13828SOL     OW45277   5.565   2.037   8.411
13828SOL    HW145278   5.604   1.952   8.375
13828SOL    HW245279   5.467   2.039   8.392
13829SOL     OW45280   3.987   2.188   8.168
13829SOL    HW145281   3.908   2.239   8.134
13829SOL    HW245282   3.978   2.173   8.266
13830SOL     OW45283   4.918   3.474   7.479
13830SOL    HW145284   4.924   3.381   7.516
13830SOL    HW245285   4.859   3.474   7.399
13831SOL     OW45286   4.546   2.864   8.820
13831SOL    HW145287   4.586   2.863   8.728
13831SOL    HW245288   4.556   2.956   8.860
13832SOL     OW45289   4.640   2.772   7.739
13832SOL    HW145290   4.703   2.810   7.671
13832SOL    HW245291   4.680   2.689   7.778
13833SOL     OW45292   5.228   3.469   7.492
13833SOL    HW145293   5.136   3.506   7.499
13833SOL    HW245294   5.266   3.489   7.402
13834SOL     OW45295   4.096   3.150   8.938
13834SOL    HW145296   4.083   3.243   8.904
13834SOL    HW245297   4.012   3.098   8.925
13835SOL     OW45298   5.338   3.154   8.737
13835SOL    HW145299   5.398   3.157   8.817
13835SOL    HW245300   5.263   3.218   8.750
13836SOL     OW45301   4.763   2.960   8.144
13836SOL    HW145302   4.693   2.913   8.198
13836SOL    HW245303   4.822   2.892   8.101
13837SOL     OW45304   4.738   2.098   8.419
13837SOL    HW145305   4.730   2.062   8.326
13837SOL    HW245306   4.736   2.022   8.484
13838SOL     OW45307   4.314   3.349   7.939
13838SOL    HW145308   4.356   3.291   7.869
13838SOL    HW245309   4.270   3.428   7.895
13839SOL     OW45310   5.433   2.247   8.829
13839SOL    HW145311   5.506   2.316   8.833
13839SOL    HW245312   5.461   2.172   8.770
13840SOL     OW45313   3.979   3.210   7.738
13840SOL    HW145314   3.883   3.211   7.711
13840SOL    HW245315   3.991   3.263   7.822
13841SOL     OW45316   3.829   2.875   9.174
13841SOL    HW145317   3.752   2.842   9.228
13841SOL    HW245318   3.914   2.845   9.216
13842SOL     OW45319   3.799   2.207   7.481
13842SOL    HW145320   3.707   2.179   7.452
13842SOL    HW245321   3.830   2.284   7.425
13843SOL     OW45322   5.164   2.718   8.846
13843SOL    HW145323   5.107   2.770   8.783
13843SOL    HW245324   5.260   2.730   8.822
13844SOL     OW45325   3.796   2.028   7.766
13844SOL    HW145326   3.779   2.111   7.712
13844SOL    HW245327   3.886   1.991   7.744
13845SOL     OW45328   4.907   3.197   7.567
13845SOL    HW145329   4.808   3.186   7.569
13845SOL    HW245330   4.941   3.212   7.660
13846SOL     OW45331   4.337   2.704   8.879
13846SOL    HW145332   4.393   2.785   8.862
13846SOL    HW245333   4.396   2.624   8.882
13847SOL     OW45334   5.217   3.629   8.407
13847SOL    HW145335   5.250   3.693   8.338
13847SOL    HW245336   5.283   3.623   8.482
13848SOL     OW45337   4.440   2.427   9.156
13848SOL    HW145338   4.459   2.492   9.230
13848SOL    HW245339   4.500   2.347   9.165
13849SOL     OW45340   5.174   3.082   9.081
13849SOL    HW145341   5.165   3.072   9.180
13849SOL    HW245342   5.270   3.075   9.055
13850SOL     OW45343   4.114   3.603   9.008
13850SOL    HW145344   4.023   3.644   9.006
13850SOL    HW245345   4.107   3.509   9.040
13851SOL     OW45346   5.398   2.745   8.702
13851SOL    HW145347   5.371   2.656   8.665
13851SOL    HW245348   5.399   2.813   8.629
13852SOL     OW45349   4.949   2.187   7.897
13852SOL    HW145350   5.014   2.113   7.886
13852SOL    HW245351   4.969   2.237   7.981
13853SOL     OW45352   4.318   2.607   8.100
13853SOL    HW145353   4.368   2.692   8.081
13853SOL    HW245354   4.230   2.609   8.052
13854SOL     OW45355   5.501   2.204   9.090
13854SOL    HW145356   5.484   2.235   8.996
13854SOL    HW245357   5.417   2.167   9.128
13855SOL     OW45358   5.454   2.796   8.965
13855SOL    HW145359   5.492   2.887   8.980
13855SOL    HW245360   5.446   2.779   8.866
13856SOL     OW45361   4.583   3.236   7.464
13856SOL    HW145362   4.537   3.251   7.552
13856SOL    HW245363   4.627   3.321   7.434
13857SOL     OW45364   4.385   3.652   8.401
13857SOL    HW145365   4.339   3.740   8.388
13857SOL    HW245366   4.484   3.664   8.394
13858SOL     OW45367   4.583   2.818   8.309
13858SOL    HW145368   4.637   2.749   8.357
13858SOL    HW245369   4.551   2.887   8.375
13859SOL     OW45370   4.807   2.846   7.535
13859SOL    HW145371   4.784   2.899   7.453
13859SOL    HW245372   4.888   2.790   7.516
13860SOL     OW45373   5.585   3.431   8.299
13860SOL    HW145374   5.514   3.419   8.229
13860SOL    HW245375   5.586   3.352   8.359
13861SOL     OW45376   3.945   3.176   9.292
13861SOL    HW145377   3.880   3.103   9.271
13861SOL    HW245378   3.949   3.190   9.390
13862SOL     OW45379   3.803   3.102   8.101
13862SOL    HW145380   3.802   3.055   8.189
13862SOL    HW245381   3.885   3.074   8.050
13863SOL     OW45382   4.396   3.253   9.072
13863SOL    HW145383   4.318   3.203   9.110
13863SOL    HW245384   4.393   3.348   9.103
13864SOL     OW45385   5.548   2.054   8.675
13864SOL    HW145386   5.544   1.964   8.719
13864SOL    HW245387   5.551   2.043   8.576
13865SOL     OW45388   4.152   2.286   7.968
13865SOL    HW145389   4.182   2.214   7.906
13865SOL    HW245390   4.113   2.246   8.051
13866SOL     OW45391   5.429   3.349   8.552
13866SOL    HW145392   5.336   3.324   8.525
13866SOL    HW245393   5.455   3.299   8.634
13867SOL     OW45394   4.041   2.409   8.728
13867SOL    HW145395   4.079   2.350   8.800
13867SOL    HW245396   4.081   2.383   8.640
13868SOL     OW45397   4.536   3.448   8.135
13868SOL    HW145398   4.568   3.458   8.041
13868SOL    HW245399   4.457   3.386   8.137
13869SOL     OW45400   5.148   2.076   8.560
13869SOL    HW145401   5.200   2.011   8.615
13869SOL    HW245402   5.099   2.139   8.621
13870SOL     OW45403   4.494   3.192   7.749
13870SOL    HW145404   4.448   3.105   7.766
13870SOL    HW245405   4.585   3.189   7.790
13871SOL     OW45406   4.342   3.429   8.732
13871SOL    HW145407   4.337   3.511   8.789
13871SOL    HW245408   4.431   3.426   8.687
13872SOL     OW45409   5.076   1.914   7.616
13872SOL    HW145410   5.111   1.873   7.532
13872SOL    HW245411   4.986   1.876   7.636
13873SOL     OW45412   5.024   2.315   8.139
13873SOL    HW145413   4.965   2.395   8.143
13873SOL    HW245414   5.039   2.280   8.232
13874SOL     OW45415   5.317   2.083   8.330
13874SOL    HW145416   5.233   2.082   8.384
13874SOL    HW245417   5.319   2.166   8.274
13875SOL     OW45418   3.763   2.939   7.748
13875SOL    HW145419   3.862   2.928   7.739
13875SOL    HW245420   3.723   2.853   7.780
13876SOL     OW45421   4.599   3.508   7.785
13876SOL    HW145422   4.522   3.473   7.731
13876SOL    HW245423   4.567   3.579   7.847
13877SOL     OW45424   3.954   2.490   9.423
13877SOL    HW145425   3.861   2.488   9.460
13877SOL    HW245426   3.955   2.451   9.331
13878SOL     OW45427   5.479   2.469   9.541
13878SOL    HW145428   5.467   2.456   9.442
13878SOL    HW245429   5.449   2.388   9.590
13879SOL     OW45430   3.955   3.575   9.793
13879SOL    HW145431   3.989   3.652   9.847
13879SOL    HW245432   3.999   3.575   9.703
13880SOL     OW45433   3.954   3.296   9.848
13880SOL    HW145434   3.928   3.392   9.848
13880SOL    HW245435   3.883   3.242   9.893
13881SOL     OW45436   4.330   2.826   9.433
13881SOL    HW145437   4.337   2.910   9.379
13881SOL    HW245438   4.376   2.839   9.521
13882SOL     OW45439   3.846   2.505   9.873
13882SOL    HW145440   3.801   2.417   9.890
13882SOL    HW245441   3.845   2.559   9.957
13883SOL     OW45442   5.566   3.629   9.669
13883SOL    HW145443   5.620   3.600   9.749
13883SOL    HW245444   5.596   3.719   9.640
13884SOL     OW45445   3.751   3.458   9.427
13884SOL    HW145446   3.732   3.362   9.448
13884SOL    HW245447   3.718   3.516   9.502
13885SOL     OW45448   5.413   2.784   9.922
13885SOL    HW145449   5.508   2.755   9.930
13885SOL    HW245450   5.405   2.849   9.847
13886SOL     OW45451   5.365   2.970   9.742
13886SOL    HW145452   5.451   2.972   9.690
13886SOL    HW245453   5.379   3.017   9.830
13887SOL     OW45454   4.337   3.227  10.036
13887SOL    HW145455   4.288   3.140  10.045
13887SOL    HW245456   4.314   3.270   9.949
13888SOL     OW45457   4.533   1.866   9.812
13888SOL    HW145458   4.573   1.957   9.803
13888SOL    HW245459   4.433   1.874   9.818
13889SOL     OW45460   5.249   2.861   9.500
13889SOL    HW145461   5.186   2.785   9.513
13889SOL    HW245462   5.297   2.879   9.586
13890SOL     OW45463   4.322   2.591   9.580
13890SOL    HW145464   4.346   2.660   9.512
13890SOL    HW245465   4.244   2.624   9.634
13891SOL     OW45466   5.300   3.524   9.617
13891SOL    HW145467   5.389   3.570   9.620
13891SOL    HW245468   5.279   3.500   9.522
13892SOL     OW45469   4.765   2.563   9.739
13892SOL    HW145470   4.791   2.559   9.835
13892SOL    HW245471   4.680   2.512   9.725
13893SOL     OW45472   3.800   2.673  10.099
13893SOL    HW145473   3.899   2.661  10.108
13893SOL    HW245474   3.776   2.768  10.120
13894SOL     OW45475   4.589   2.210   9.505
13894SOL    HW145476   4.648   2.273   9.456
13894SOL    HW245477   4.608   2.116   9.476
13895SOL     OW45478   5.086   3.006   9.855
13895SOL    HW145479   5.169   2.977   9.807
13895SOL    HW245480   5.037   3.073   9.799
13896SOL     OW45481   4.732   3.318   9.787
13896SOL    HW145482   4.686   3.390   9.735
13896SOL    HW245483   4.728   3.338   9.885
13897SOL     OW45484   4.075   3.663  10.163
13897SOL    HW145485   4.125   3.577  10.169
13897SOL    HW245486   4.140   3.740  10.160
13898SOL     OW45487   4.045   2.805   9.552
13898SOL    HW145488   4.127   2.844   9.510
13898SOL    HW245489   4.018   2.723   9.503
13899SOL     OW45490   5.356   3.239   9.391
13899SOL    HW145491   5.324   3.333   9.381
13899SOL    HW245492   5.280   3.176   9.379
13900SOL     OW45493   4.188   3.605   9.633
13900SOL    HW145494   4.221   3.644   9.719
13900SOL    HW245495   4.264   3.598   9.568
13901SOL     OW45496   5.124   1.969   9.736
13901SOL    HW145497   5.100   1.932   9.646
13901SOL    HW245498   5.223   1.985   9.740
13902SOL     OW45499   4.106   2.562   9.790
13902SOL    HW145500   4.151   2.472   9.787
13902SOL    HW245501   4.012   2.551   9.823
13903SOL     OW45502   4.338   1.984   9.427
13903SOL    HW145503   4.436   1.962   9.434
13903SOL    HW245504   4.307   1.967   9.334
13904SOL     OW45505   4.263   1.926   9.822
13904SOL    HW145506   4.182   1.927   9.880
13904SOL    HW245507   4.266   2.009   9.767
13905SOL     OW45508   5.158   3.050   9.351
13905SOL    HW145509   5.190   2.974   9.408
13905SOL    HW245510   5.066   3.077   9.381
13906SOL     OW45511   4.021   1.897   9.481
13906SOL    HW145512   4.070   1.981   9.460
13906SOL    HW245513   4.083   1.832   9.526
13907SOL     OW45514   4.659   2.098   9.790
13907SOL    HW145515   4.611   2.139   9.712
13907SOL    HW245516   4.758   2.096   9.771
13908SOL     OW45517   4.183   3.014  10.051
13908SOL    HW145518   4.112   2.987  10.116
13908SOL    HW245519   4.157   2.986   9.958
13909SOL     OW45520   4.995   3.659   9.901
13909SOL    HW145521   5.039   3.723   9.837
13909SOL    HW245522   4.945   3.711   9.971
13910SOL     OW45523   4.756   2.411   9.326
13910SOL    HW145524   4.715   2.493   9.287
13910SOL    HW245525   4.820   2.437   9.399
13911SOL     OW45526   4.590   2.316   9.952
13911SOL    HW145527   4.558   2.388   9.890
13911SOL    HW245528   4.614   2.235   9.899
13912SOL     OW45529   5.581   2.695   9.687
13912SOL    HW145530   5.623   2.631   9.751
13912SOL    HW245531   5.543   2.644   9.609
13913SOL     OW45532   4.212   3.247   9.484
13913SOL    HW145533   4.125   3.232   9.531
13913SOL    HW245534   4.195   3.273   9.389
13914SOL     OW45535   5.114   2.437   9.388
13914SOL    HW145536   5.060   2.416   9.469
13914SOL    HW245537   5.205   2.396   9.397
13915SOL     OW45538   4.251   2.118   9.638
13915SOL    HW145539   4.278   2.059   9.563
13915SOL    HW245540   4.251   2.213   9.607
13916SOL     OW45541   4.429   2.912   9.678
13916SOL    HW145542   4.415   2.919   9.777
13916SOL    HW245543   4.513   2.861   9.660
13917SOL     OW45544   4.091   2.962   9.811
13917SOL    HW145545   4.084   3.045   9.755
13917SOL    HW245546   4.095   2.882   9.751
13918SOL     OW45547   4.976   3.210   9.698
13918SOL    HW145548   5.026   3.287   9.738
13918SOL    HW245549   4.881   3.212   9.730
13919SOL     OW45550   5.306   2.501   9.782
13919SOL    HW145551   5.275   2.562   9.855
13919SOL    HW245552   5.356   2.553   9.713
13920SOL     OW45553   4.933   2.387   9.585
13920SOL    HW145554   4.946   2.303   9.639
13920SOL    HW245555   4.904   2.461   9.645
13921SOL     OW45556   4.031   1.925   9.928
13921SOL    HW145557   4.020   2.019   9.961
13921SOL    HW245558   4.026   1.862  10.005
13922SOL     OW45559   5.346   2.229   9.684
13922SOL    HW145560   5.348   2.153   9.748
13922SOL    HW245561   5.298   2.306   9.724
13923SOL     OW45562   5.264   2.136   9.435
13923SOL    HW145563   5.203   2.061   9.458
13923SOL    HW245564   5.286   2.188   9.518
13924SOL     OW45565   5.027   2.700   9.352
13924SOL    HW145566   5.061   2.607   9.367
13924SOL    HW245567   5.045   2.727   9.257
13925SOL     OW45568   3.732   3.188   9.510
13925SOL    HW145569   3.639   3.209   9.479
13925SOL    HW245570   3.742   3.089   9.523
13926SOL     OW45571   4.539   2.434   9.635
13926SOL    HW145572   4.546   2.345   9.589
13926SOL    HW245573   4.445   2.468   9.627
13927SOL     OW45574   5.026   2.717   9.619
13927SOL    HW145575   4.940   2.686   9.661
13927SOL    HW245576   5.022   2.703   9.520
13928SOL     OW45577   5.450   1.997   9.833
13928SOL    HW145578   5.523   1.980   9.766
13928SOL    HW245579   5.419   1.910   9.871
13929SOL     OW45580   5.112   3.435   9.787
13929SOL    HW145581   5.179   3.447   9.713
13929SOL    HW245582   5.072   3.524   9.810
13930SOL     OW45583   4.396   3.478   9.464
13930SOL    HW145584   4.405   3.488   9.365
13930SOL    HW245585   4.356   3.389   9.485
13931SOL     OW45586   4.918   3.474   9.341
13931SOL    HW145587   4.924   3.381   9.378
13931SOL    HW245588   4.859   3.474   9.261
13932SOL     OW45589   4.640   2.772   9.601
13932SOL    HW145590   4.703   2.810   9.533
13932SOL    HW245591   4.680   2.689   9.640
13933SOL     OW45592   5.228   3.469   9.354
13933SOL    HW145593   5.136   3.506   9.361
13933SOL    HW245594   5.266   3.489   9.264
13934SOL     OW45595   4.314   3.349   9.801
13934SOL    HW145596   4.356   3.291   9.731
13934SOL    HW245597   4.270   3.428   9.757
13935SOL     OW45598   3.979   3.210   9.600
13935SOL    HW145599   3.883   3.211   9.573
13935SOL    HW245600   3.991   3.263   9.684
13936SOL     OW45601   3.799   2.207   9.343
13936SOL    HW145602   3.707   2.179   9.314
13936SOL    HW245603   3.830   2.284   9.287
13937SOL     OW45604   3.796   2.028   9.628
13937SOL    HW145605   3.779   2.111   9.574
13937SOL    HW245606   3.886   1.991   9.606
13938SOL     OW45607   4.907   3.197   9.429
13938SOL    HW145608   4.808   3.186   9.431
13938SOL    HW245609   4.941   3.212   9.522
13939SOL     OW45610   4.949   2.187   9.759
13939SOL    HW145611   5.014   2.113   9.748
13939SOL    HW245612   4.969   2.237   9.843
13940SOL     OW45613   4.318   2.607   9.962
13940SOL    HW145614   4.368   2.692   9.943
13940SOL    HW245615   4.230   2.609   9.914
13941SOL     OW45616   4.583   3.236   9.326
13941SOL    HW145617   4.537   3.251   9.414
13941SOL    HW245618   4.627   3.321   9.296
13942SOL     OW45619   4.807   2.846   9.397
13942SOL    HW145620   4.784   2.899   9.315
13942SOL    HW245621   4.888   2.790   9.378
13943SOL     OW45622   3.803   3.102   9.963
13943SOL    HW145623   3.802   3.055  10.051
13943SOL    HW245624   3.885   3.074   9.912
13944SOL     OW45625   4.152   2.286   9.830
13944SOL    HW145626   4.182   2.214   9.768
13944SOL    HW245627   4.113   2.246   9.913
13945SOL     OW45628   4.494   3.192   9.611
13945SOL    HW145629   4.448   3.105   9.628
13945SOL    HW245630   4.585   3.189   9.652
13946SOL     OW45631   5.076   1.914   9.478
13946SOL    HW145632   5.111   1.873   9.394
13946SOL    HW245633   4.986   1.876   9.498
13947SOL     OW45634   3.763   2.939   9.610
13947SOL    HW145635   3.862   2.928   9.601
13947SOL    HW245636   3.723   2.853   9.642
13948SOL     OW45637   4.599   3.508   9.647
13948SOL    HW145638   4.522   3.473   9.593
13948SOL    HW245639   4.567   3.579   9.709
13949SOL     OW45640   3.954   4.352   0.113
13949SOL    HW145641   3.861   4.350   0.150
13949SOL    HW245642   3.955   4.313   0.021
13950SOL     OW45643   3.949   3.999   0.996
13950SOL    HW145644   3.984   3.982   1.088
13950SOL    HW245645   3.861   3.954   0.984
13951SOL     OW45646   3.743   4.092   0.647
13951SOL    HW145647   3.661   4.135   0.686
13951SOL    HW245648   3.715   4.019   0.584
13952SOL     OW45649   4.293   4.999   1.165
13952SOL    HW145650   4.200   4.992   1.128
13952SOL    HW245651   4.304   5.088   1.209
13953SOL     OW45652   5.279   5.235   0.703
13953SOL    HW145653   5.222   5.219   0.784
13953SOL    HW245654   5.220   5.245   0.623
13954SOL     OW45655   4.859   4.427   0.717
13954SOL    HW145656   4.916   4.505   0.692
13954SOL    HW245657   4.799   4.453   0.793
13955SOL     OW45658   5.479   4.331   0.231
13955SOL    HW145659   5.467   4.318   0.132
13955SOL    HW245660   5.449   4.250   0.280
13956SOL     OW45661   4.492   4.868   1.023
13956SOL    HW145662   4.414   4.885   1.083
13956SOL    HW245663   4.526   4.955   0.987
13957SOL     OW45664   4.574   4.522   1.823
13957SOL    HW145665   4.570   4.598   1.888
13957SOL    HW245666   4.596   4.558   1.732
13958SOL     OW45667   4.409   4.736   0.665
13958SOL    HW145668   4.478   4.720   0.735
13958SOL    HW245669   4.336   4.793   0.703
13959SOL     OW45670   4.410   4.885   1.803
13959SOL    HW145671   4.470   4.964   1.817
13959SOL    HW245672   4.324   4.916   1.762
13960SOL     OW45673   4.059   5.159   1.061
13960SOL    HW145674   3.981   5.128   1.008
13960SOL    HW245675   4.117   5.217   1.004
13961SOL     OW45676   5.184   5.229   1.339
13961SOL    HW145677   5.208   5.323   1.365
13961SOL    HW245678   5.168   5.175   1.421
13962SOL     OW45679   4.162   4.116   1.499
13962SOL    HW145680   4.244   4.060   1.508
13962SOL    HW245681   4.081   4.058   1.503
13963SOL     OW45682   5.327   4.171   0.737
13963SOL    HW145683   5.253   4.217   0.687
13963SOL    HW245684   5.378   4.239   0.790
13964SOL     OW45685   3.955   5.437   0.483
13964SOL    HW145686   3.989   5.514   0.537
13964SOL    HW245687   3.999   5.437   0.393
13965SOL     OW45688   4.851   5.065   1.690
13965SOL    HW145689   4.898   5.065   1.778
13965SOL    HW245690   4.803   4.978   1.679
13966SOL     OW45691   3.954   5.158   0.538
13966SOL    HW145692   3.928   5.254   0.538
13966SOL    HW245693   3.883   5.104   0.583
13967SOL     OW45694   3.964   4.815   0.886
13967SOL    HW145695   3.978   4.731   0.938
13967SOL    HW245696   3.909   4.879   0.941
13968SOL     OW45697   4.344   5.510   1.439
13968SOL    HW145698   4.252   5.493   1.474
13968SOL    HW245699   4.372   5.602   1.465
13969SOL     OW45700   4.330   4.688   0.123
13969SOL    HW145701   4.337   4.772   0.069
13969SOL    HW245702   4.376   4.701   0.211
13970SOL     OW45703   5.318   3.838   1.480
13970SOL    HW145704   5.300   3.905   1.408
13970SOL    HW245705   5.315   3.884   1.569
13971SOL     OW45706   3.846   4.367   0.563
13971SOL    HW145707   3.801   4.279   0.580
13971SOL    HW245708   3.845   4.421   0.647
13972SOL     OW45709   5.566   5.491   0.359
13972SOL    HW145710   5.620   5.462   0.439
13972SOL    HW245711   5.596   5.581   0.330
13973SOL     OW45712   3.751   5.320   0.117
13973SOL    HW145713   3.732   5.224   0.138
13973SOL    HW245714   3.718   5.378   0.192
13974SOL     OW45715   5.413   4.646   0.612
13974SOL    HW145716   5.508   4.617   0.620
13974SOL    HW245717   5.405   4.711   0.537
13975SOL     OW45718   5.365   4.832   0.432
13975SOL    HW145719   5.451   4.834   0.380
13975SOL    HW245720   5.379   4.879   0.520
13976SOL     OW45721   3.837   4.461   1.597
13976SOL    HW145722   3.925   4.448   1.642
13976SOL    HW245723   3.824   4.558   1.575
13977SOL     OW45724   4.337   5.089   0.726
13977SOL    HW145725   4.288   5.002   0.735
13977SOL    HW245726   4.314   5.132   0.639
13978SOL     OW45727   5.017   4.952   1.423
13978SOL    HW145728   5.054   4.879   1.365
13978SOL    HW245729   5.069   4.957   1.508
13979SOL     OW45730   4.533   3.728   0.502
13979SOL    HW145731   4.573   3.819   0.493
13979SOL    HW245732   4.433   3.736   0.508
13980SOL     OW45733   3.921   4.700   1.264
13980SOL    HW145734   4.010   4.655   1.250
13980SOL    HW245735   3.848   4.635   1.245
13981SOL     OW45736   5.249   4.723   0.190
13981SOL    HW145737   5.186   4.647   0.203
13981SOL    HW245738   5.297   4.741   0.276
13982SOL     OW45739   4.911   5.516   1.616
13982SOL    HW145740   4.935   5.576   1.540
13982SOL    HW245741   4.918   5.421   1.586
13983SOL     OW45742   4.041   3.975   1.801
13983SOL    HW145743   4.112   4.046   1.807
13983SOL    HW245744   3.953   4.014   1.829
13984SOL     OW45745   5.190   5.141   0.953
13984SOL    HW145746   5.131   5.147   1.033
13984SOL    HW245747   5.175   5.053   0.907
13985SOL     OW45748   5.391   5.438   0.572
13985SOL    HW145749   5.350   5.415   0.484
13985SOL    HW245750   5.373   5.364   0.637
13986SOL     OW45751   4.322   4.453   0.270
13986SOL    HW145752   4.346   4.522   0.202
13986SOL    HW245753   4.244   4.486   0.324
13987SOL     OW45754   5.005   4.069   0.944
13987SOL    HW145755   4.919   4.019   0.931
13987SOL    HW245756   5.067   4.015   1.000
13988SOL     OW45757   5.300   5.386   0.307
13988SOL    HW145758   5.389   5.432   0.310
13988SOL    HW245759   5.279   5.362   0.212
13989SOL     OW45760   4.531   4.329   1.465
13989SOL    HW145761   4.484   4.326   1.554
13989SOL    HW245762   4.480   4.274   1.399
13990SOL     OW45763   5.118   4.193   1.674
13990SOL    HW145764   5.098   4.236   1.762
13990SOL    HW245765   5.196   4.131   1.683
13991SOL     OW45766   4.697   4.614   1.572
13991SOL    HW145767   4.743   4.530   1.543
13991SOL    HW245768   4.641   4.648   1.497
13992SOL     OW45769   4.715   4.134   1.242
13992SOL    HW145770   4.638   4.168   1.296
13992SOL    HW245771   4.681   4.083   1.163
13993SOL     OW45772   4.765   4.425   0.429
13993SOL    HW145773   4.791   4.421   0.525
13993SOL    HW245774   4.680   4.374   0.415
13994SOL     OW45775   3.800   4.535   0.789
13994SOL    HW145776   3.899   4.523   0.798
13994SOL    HW245777   3.776   4.630   0.810
13995SOL     OW45778   3.854   5.545   1.571
13995SOL    HW145779   3.844   5.530   1.670
13995SOL    HW245780   3.768   5.581   1.535
13996SOL     OW45781   4.589   4.072   0.195
13996SOL    HW145782   4.648   4.135   0.146
13996SOL    HW245783   4.608   3.978   0.166
13997SOL     OW45784   5.443   4.309   1.831
13997SOL    HW145785   5.417   4.398   1.795
13997SOL    HW245786   5.441   4.241   1.758
13998SOL     OW45787   5.086   4.868   0.545
13998SOL    HW145788   5.169   4.839   0.497
13998SOL    HW245789   5.037   4.935   0.489
13999SOL     OW45790   4.274   3.920   0.885
13999SOL    HW145791   4.269   3.915   0.985
13999SOL    HW245792   4.276   4.016   0.856
14000SOL     OW45793   4.075   5.525   0.853
14000SOL    HW145794   4.125   5.439   0.859
14000SOL    HW245795   4.140   5.602   0.850
14001SOL     OW45796   5.519   4.790   0.873
14001SOL    HW145797   5.457   4.775   0.797
14001SOL    HW245798   5.467   4.801   0.958
14002SOL     OW45799   4.951   5.274   1.506
14002SOL    HW145800   4.957   5.197   1.570
14002SOL    HW245801   4.899   5.248   1.426
14003SOL     OW45802   4.045   4.667   0.242
14003SOL    HW145803   4.127   4.706   0.200
14003SOL    HW245804   4.018   4.585   0.193
14004SOL     OW45805   5.182   4.459   0.728
14004SOL    HW145806   5.177   4.394   0.803
14004SOL    HW245807   5.262   4.518   0.741
14005SOL     OW45808   4.185   4.990   1.727
14005SOL    HW145809   4.135   4.991   1.641
14005SOL    HW245810   4.122   4.972   1.803
14006SOL     OW45811   4.835   5.500   0.237
14006SOL    HW145812   4.775   5.438   0.287
14006SOL    HW245813   4.866   5.456   0.152
14007SOL     OW45814   3.926   4.009   1.498
14007SOL    HW145815   3.846   4.069   1.485
14007SOL    HW245816   3.916   3.960   1.584
14008SOL     OW45817   5.356   5.101   0.081
14008SOL    HW145818   5.324   5.195   0.071
14008SOL    HW245819   5.280   5.038   0.069
14009SOL     OW45820   4.188   5.467   0.323
14009SOL    HW145821   4.221   5.506   0.409
14009SOL    HW245822   4.264   5.460   0.258
14010SOL     OW45823   5.124   3.831   0.426
14010SOL    HW145824   5.100   3.794   0.336
14010SOL    HW245825   5.223   3.847   0.430
14011SOL     OW45826   3.973   5.509   1.241
14011SOL    HW145827   4.030   5.444   1.291
14011SOL    HW245828   3.957   5.476   1.148
14012SOL     OW45829   4.106   4.424   0.480
14012SOL    HW145830   4.151   4.334   0.477
14012SOL    HW245831   4.012   4.413   0.513
14013SOL     OW45832   5.271   3.946   1.729
14013SOL    HW145833   5.266   3.983   1.821
14013SOL    HW245834   5.199   3.877   1.717
14014SOL     OW45835   4.338   3.846   0.117
14014SOL    HW145836   4.436   3.824   0.124
14014SOL    HW245837   4.307   3.829   0.024
14015SOL     OW45838   4.505   3.988   1.749
14015SOL    HW145839   4.572   3.927   1.792
14015SOL    HW245840   4.432   4.007   1.814
14016SOL     OW45841   4.612   5.238   1.195
14016SOL    HW145842   4.589   5.213   1.101
14016SOL    HW245843   4.673   5.169   1.234
14017SOL     OW45844   5.075   4.314   1.433
14017SOL    HW145845   5.103   4.271   1.518
14017SOL    HW245846   5.100   4.410   1.434
14018SOL     OW45847   4.527   5.126   0.924
14018SOL    HW145848   4.617   5.140   0.882
14018SOL    HW245849   4.456   5.128   0.853
14019SOL     OW45850   4.646   4.227   0.899
14019SOL    HW145851   4.621   4.218   0.803
14019SOL    HW245852   4.694   4.145   0.930
14020SOL     OW45853   4.263   3.788   0.512
14020SOL    HW145854   4.182   3.789   0.570
14020SOL    HW245855   4.266   3.871   0.457
14021SOL     OW45856   5.158   4.912   0.041
14021SOL    HW145857   5.190   4.836   0.098
14021SOL    HW245858   5.066   4.939   0.071
14022SOL     OW45859   4.659   3.960   0.480
14022SOL    HW145860   4.611   4.001   0.402
14022SOL    HW245861   4.758   3.958   0.461
14023SOL     OW45862   4.800   4.407   1.464
14023SOL    HW145863   4.720   4.346   1.467
14023SOL    HW245864   4.881   4.354   1.440
14024SOL     OW45865   4.183   4.876   0.741
14024SOL    HW145866   4.112   4.849   0.806
14024SOL    HW245867   4.157   4.848   0.648
14025SOL     OW45868   4.995   5.521   0.591
14025SOL    HW145869   5.039   5.585   0.527
14025SOL    HW245870   4.945   5.573   0.661
14026SOL     OW45871   4.756   4.273   0.016
14026SOL    HW145872   4.715   4.355  -0.023
14026SOL    HW245873   4.820   4.299   0.089
14027SOL     OW45874   3.802   4.280   1.386
14027SOL    HW145875   3.894   4.279   1.345
14027SOL    HW245876   3.796   4.354   1.453
14028SOL     OW45877   4.285   3.946   1.147
14028SOL    HW145878   4.323   3.862   1.184
14028SOL    HW245879   4.197   3.965   1.191
14029SOL     OW45880   4.590   4.178   0.642
14029SOL    HW145881   4.558   4.250   0.580
14029SOL    HW245882   4.614   4.097   0.589
14030SOL     OW45883   4.741   3.763   0.753
14030SOL    HW145884   4.669   3.768   0.684
14030SOL    HW245885   4.717   3.694   0.822
14031SOL     OW45886   5.153   4.897   0.867
14031SOL    HW145887   5.098   4.813   0.860
14031SOL    HW245888   5.179   4.926   0.775
14032SOL     OW45889   5.190   4.314   0.992
14032SOL    HW145890   5.160   4.219   0.999
14032SOL    HW245891   5.263   4.330   1.058
14033SOL     OW45892   5.581   4.557   0.377
14033SOL    HW145893   5.623   4.493   0.441
14033SOL    HW245894   5.543   4.506   0.299
14034SOL     OW45895   4.212   5.109   0.174
14034SOL    HW145896   4.125   5.094   0.221
14034SOL    HW245897   4.195   5.135   0.079
14035SOL     OW45898   5.388   5.004   0.657
14035SOL    HW145899   5.487   5.012   0.671
14035SOL    HW245900   5.343   5.088   0.688
14036SOL     OW45901   5.114   4.299   0.078
14036SOL    HW145902   5.060   4.278   0.159
14036SOL    HW245903   5.205   4.258   0.087
14037SOL     OW45904   4.251   3.980   0.328
14037SOL    HW145905   4.278   3.921   0.253
14037SOL    HW245906   4.251   4.075   0.297
14038SOL     OW45907   5.478   4.947   1.588
14038SOL    HW145908   5.569   4.908   1.575
14038SOL    HW245909   5.486   5.043   1.612
14039SOL     OW45910   4.788   5.071   1.340
14039SOL    HW145911   4.708   5.048   1.395
14039SOL    HW245912   4.871   5.045   1.389
14040SOL     OW45913   5.316   5.353   1.625
14040SOL    HW145914   5.343   5.387   1.535
14040SOL    HW245915   5.395   5.315   1.671
14041SOL     OW45916   4.835   4.919   1.100
14041SOL    HW145917   4.795   4.963   1.181
14041SOL    HW245918   4.794   4.956   1.017
14042SOL     OW45919   5.362   4.823   1.079
14042SOL    HW145920   5.367   4.904   1.138
14042SOL    HW245921   5.276   4.825   1.028
14043SOL     OW45922   4.639   3.813   1.402
14043SOL    HW145923   4.664   3.793   1.307
14043SOL    HW245924   4.711   3.869   1.444
14044SOL     OW45925   4.704   4.840   1.719
14044SOL    HW145926   4.605   4.846   1.729
14044SOL    HW245927   4.727   4.760   1.663
14045SOL     OW45928   4.429   4.774   0.368
14045SOL    HW145929   4.415   4.781   0.467
14045SOL    HW245930   4.513   4.723   0.350
14046SOL     OW45931   4.134   4.537   1.251
14046SOL    HW145932   4.220   4.549   1.301
14046SOL    HW245933   4.092   4.450   1.278
14047SOL     OW45934   4.998   4.110   1.262
14047SOL    HW145935   5.019   4.184   1.326
14047SOL    HW245936   4.909   4.127   1.219
14048SOL     OW45937   3.788   5.288   1.331
14048SOL    HW145938   3.742   5.370   1.297
14048SOL    HW245939   3.886   5.307   1.340
14049SOL     OW45940   4.091   4.824   0.501
14049SOL    HW145941   4.084   4.907   0.445
14049SOL    HW245942   4.095   4.744   0.441
14050SOL     OW45943   4.290   4.261   0.865
14050SOL    HW145944   4.302   4.327   0.791
14050SOL    HW245945   4.336   4.295   0.948
14051SOL     OW45946   4.976   5.072   0.388
14051SOL    HW145947   5.026   5.149   0.428
14051SOL    HW245948   4.881   5.074   0.420
14052SOL     OW45949   4.996   5.169   1.142
14052SOL    HW145950   5.043   5.182   1.229
14052SOL    HW245951   4.930   5.095   1.151
14053SOL     OW45952   5.306   4.363   0.472
14053SOL    HW145953   5.275   4.424   0.545
14053SOL    HW245954   5.356   4.415   0.403
14054SOL     OW45955   4.078   5.234   1.329
14054SOL    HW145956   4.057   5.190   1.242
14054SOL    HW245957   4.175   5.260   1.332
14055SOL     OW45958   4.126   4.475   1.598
14055SOL    HW145959   4.194   4.530   1.551
14055SOL    HW245960   4.166   4.387   1.625
14056SOL     OW45961   5.311   4.503   1.670
14056SOL    HW145962   5.219   4.541   1.665
14056SOL    HW245963   5.371   4.550   1.605
14057SOL     OW45964   4.737   3.829   1.770
14057SOL    HW145965   4.743   3.914   1.718
14057SOL    HW245966   4.769   3.753   1.713
14058SOL     OW45967   4.228   3.774   1.740
14058SOL    HW145968   4.186   3.717   1.670
14058SOL    HW245969   4.162   3.843   1.772
14059SOL     OW45970   4.297   4.594   1.029
14059SOL    HW145971   4.341   4.683   1.020
14059SOL    HW245972   4.234   4.594   1.106
14060SOL     OW45973   5.084   4.586   1.045
14060SOL    HW145974   5.009   4.586   0.979
14060SOL    HW245975   5.121   4.494   1.054
14061SOL     OW45976   4.933   4.249   0.275
14061SOL    HW145977   4.946   4.165   0.329
14061SOL    HW245978   4.904   4.323   0.335
14062SOL     OW45979   4.031   3.937   1.231
14062SOL    HW145980   4.008   3.974   1.321
14062SOL    HW245981   4.001   3.842   1.225
14063SOL     OW45982   3.761   5.034   1.282
14063SOL    HW145983   3.814   4.985   1.350
14063SOL    HW245984   3.783   5.132   1.287
14064SOL     OW45985   4.456   4.358   1.064
14064SOL    HW145986   4.515   4.332   0.988
14064SOL    HW245987   4.428   4.454   1.053
14065SOL     OW45988   5.452   4.659   1.854
14065SOL    HW145989   5.406   4.652   1.765
14065SOL    HW245990   5.390   4.703   1.920
14066SOL     OW45991   4.031   3.787   0.618
14066SOL    HW145992   4.020   3.881   0.651
14066SOL    HW245993   4.026   3.724   0.695
14067SOL     OW45994   5.346   4.091   0.374
14067SOL    HW145995   5.348   4.015   0.438
14067SOL    HW245996   5.298   4.168   0.414
14068SOL     OW45997   4.747   4.490   0.966
14068SOL    HW145998   4.762   4.511   1.062
14068SOL    HW245999   4.717   4.395   0.957
14069SOL     OW46000   4.704   5.297   1.700
14069SOL    HW146001   4.684   5.341   1.612
14069SOL    HW246002   4.743   5.206   1.684
14070SOL     OW46003   5.583   5.242   1.605
14070SOL    HW146004   5.597   5.269   1.510
14070SOL    HW246005   5.666   5.264   1.658
14071SOL     OW46006   4.074   4.622   1.804
14071SOL    HW146007   4.150   4.666   1.852
14071SOL    HW246008   4.109   4.575   1.722
14072SOL     OW46009   5.264   3.998   0.125
14072SOL    HW146010   5.203   3.923   0.148
14072SOL    HW246011   5.286   4.050   0.208
14073SOL     OW46012   5.027   4.562   0.042
14073SOL    HW146013   5.061   4.469   0.057
14073SOL    HW246014   5.045   4.589  -0.053
14074SOL     OW46015   4.043   4.534   0.949
14074SOL    HW146016   4.136   4.570   0.954
14074SOL    HW246017   4.037   4.449   1.001
14075SOL     OW46018   4.063   4.233   1.006
14075SOL    HW146019   4.011   4.150   0.989
14075SOL    HW246020   4.140   4.238   0.942
14076SOL     OW46021   4.862   4.104   1.678
14076SOL    HW146022   4.817   4.167   1.742
14076SOL    HW246023   4.955   4.135   1.661
14077SOL     OW46024   4.884   3.931   1.477
14077SOL    HW146025   4.884   3.995   1.554
14077SOL    HW246026   4.912   3.979   1.394
14078SOL     OW46027   3.732   5.050   0.200
14078SOL    HW146028   3.639   5.071   0.169
14078SOL    HW246029   3.742   4.951   0.213
14079SOL     OW46030   3.812   5.525   0.927
14079SOL    HW146031   3.770   5.439   0.900
14079SOL    HW246032   3.906   5.528   0.893
14080SOL     OW46033   4.228   5.292   0.910
14080SOL    HW146034   4.294   5.366   0.919
14080SOL    HW246035   4.272   5.213   0.868
14081SOL     OW46036   4.726   4.520   1.238
14081SOL    HW146037   4.767   4.488   1.324
14081SOL    HW246038   4.630   4.493   1.235
14082SOL     OW46039   3.764   4.268   1.114
14082SOL    HW146040   3.849   4.235   1.073
14082SOL    HW246041   3.777   4.283   1.212
14083SOL     OW46042   3.913   4.244   1.722
14083SOL    HW146043   3.972   4.204   1.652
14083SOL    HW246044   3.855   4.315   1.681
14084SOL     OW46045   5.093   4.674   1.660
14084SOL    HW146046   5.132   4.763   1.680
14084SOL    HW246047   5.103   4.654   1.563
14085SOL     OW46048   4.539   4.296   0.325
14085SOL    HW146049   4.546   4.207   0.279
14085SOL    HW246050   4.445   4.330   0.317
14086SOL     OW46051   5.381   4.328   1.206
14086SOL    HW146052   5.343   4.259   1.268
14086SOL    HW246053   5.463   4.292   1.162
14087SOL     OW46054   3.976   5.288   1.744
14087SOL    HW146055   3.946   5.345   1.820
14087SOL    HW246056   3.969   5.191   1.770
14088SOL     OW46057   4.395   4.188   1.269
14088SOL    HW146058   4.361   4.099   1.239
14088SOL    HW246059   4.421   4.242   1.189
14089SOL     OW46060   4.654   5.402   1.465
14089SOL    HW146061   4.630   5.384   1.370
14089SOL    HW246062   4.684   5.496   1.475
14090SOL     OW46063   4.197   4.224   0.191
14090SOL    HW146064   4.258   4.304   0.195
14090SOL    HW246065   4.102   4.255   0.198
14091SOL     OW46066   3.883   4.861   1.466
14091SOL    HW146067   3.905   4.800   1.542
14091SOL    HW246068   3.893   4.812   1.380
14092SOL     OW46069   5.071   4.783   1.234
14092SOL    HW146070   5.095   4.720   1.160
14092SOL    HW246071   4.981   4.823   1.216
14093SOL     OW46072   5.026   4.579   0.309
14093SOL    HW146073   4.940   4.548   0.351
14093SOL    HW246074   5.022   4.565   0.210
14094SOL     OW46075   5.483   5.471   1.154
14094SOL    HW146076   5.544   5.501   1.081
14094SOL    HW246077   5.445   5.382   1.132
14095SOL     OW46078   4.976   5.455   1.128
14095SOL    HW146079   5.060   5.460   1.074
14095SOL    HW246080   4.953   5.359   1.146
14096SOL     OW46081   3.807   4.982   1.022
14096SOL    HW146082   3.802   4.981   1.122
14096SOL    HW246083   3.724   4.941   0.984
14097SOL     OW46084   4.412   5.386   1.716
14097SOL    HW146085   4.356   5.467   1.725
14097SOL    HW246086   4.464   5.390   1.630
14098SOL     OW46087   4.627   3.810   0.133
14098SOL    HW146088   4.678   3.811   0.047
14098SOL    HW246089   4.683   3.768   0.204
14099SOL     OW46090   5.450   3.859   0.523
14099SOL    HW146091   5.523   3.842   0.456
14099SOL    HW246092   5.419   3.772   0.561
14100SOL     OW46093   5.112   5.297   0.477
14100SOL    HW146094   5.179   5.309   0.403
14100SOL    HW246095   5.072   5.386   0.500
14101SOL     OW46096   3.854   5.518   1.851
14101SOL    HW146097   3.813   5.444   1.904
14101SOL    HW246098   3.918   5.569   1.909
14102SOL     OW46099   5.004   4.651   0.672
14102SOL    HW146100   5.064   4.570   0.674
14102SOL    HW246101   5.044   4.720   0.612
14103SOL     OW46102   4.554   4.997   1.422
14103SOL    HW146103   4.549   5.030   1.517
14103SOL    HW246104   4.468   5.016   1.376
14104SOL     OW46105   4.396   5.340   0.154
14104SOL    HW146106   4.405   5.350   0.055
14104SOL    HW246107   4.356   5.251   0.175
14105SOL     OW46108   5.374   5.444   1.394
14105SOL    HW146109   5.427   5.454   1.310
14105SOL    HW246110   5.347   5.534   1.428
14106SOL     OW46111   5.565   3.899   0.963
14106SOL    HW146112   5.604   3.814   0.927
14106SOL    HW246113   5.467   3.901   0.944
14107SOL     OW46114   3.987   4.050   0.720
14107SOL    HW146115   3.908   4.101   0.686
14107SOL    HW246116   3.978   4.035   0.818
14108SOL     OW46117   4.918   5.336   0.031
14108SOL    HW146118   4.924   5.243   0.068
14108SOL    HW246119   4.859   5.336  -0.049
14109SOL     OW46120   4.546   4.726   1.372
14109SOL    HW146121   4.586   4.725   1.280
14109SOL    HW246122   4.556   4.818   1.412
14110SOL     OW46123   4.640   4.634   0.291
14110SOL    HW146124   4.703   4.672   0.223
14110SOL    HW246125   4.680   4.551   0.330
14111SOL     OW46126   5.228   5.331   0.044
14111SOL    HW146127   5.136   5.368   0.051
14111SOL    HW246128   5.266   5.351  -0.046
14112SOL     OW46129   4.096   5.012   1.490
14112SOL    HW146130   4.083   5.105   1.456
14112SOL    HW246131   4.012   4.960   1.477
14113SOL     OW46132   5.338   5.016   1.289
14113SOL    HW146133   5.398   5.019   1.369
14113SOL    HW246134   5.263   5.080   1.302
14114SOL     OW46135   4.763   4.822   0.696
14114SOL    HW146136   4.693   4.775   0.750
14114SOL    HW246137   4.822   4.754   0.653
14115SOL     OW46138   4.738   3.960   0.971
14115SOL    HW146139   4.730   3.924   0.878
14115SOL    HW246140   4.736   3.884   1.036
14116SOL     OW46141   4.314   5.211   0.491
14116SOL    HW146142   4.356   5.153   0.421
14116SOL    HW246143   4.270   5.290   0.447
14117SOL     OW46144   5.433   4.109   1.381
14117SOL    HW146145   5.506   4.178   1.385
14117SOL    HW246146   5.461   4.034   1.322
14118SOL     OW46147   3.979   5.072   0.290
14118SOL    HW146148   3.883   5.073   0.263
14118SOL    HW246149   3.991   5.125   0.374
14119SOL     OW46150   3.829   4.737   1.726
14119SOL    HW146151   3.752   4.704   1.780
14119SOL    HW246152   3.914   4.707   1.768
14120SOL     OW46153   4.396   3.927   1.489
14120SOL    HW146154   4.486   3.911   1.449
14120SOL    HW246155   4.404   3.932   1.588
14121SOL     OW46156   3.799   4.069   0.033
14121SOL    HW146157   3.707   4.041   0.004
14121SOL    HW246158   3.830   4.146  -0.023
14122SOL     OW46159   5.164   4.580   1.398
14122SOL    HW146160   5.107   4.632   1.335
14122SOL    HW246161   5.260   4.592   1.374
14123SOL     OW46162   3.796   3.890   0.318
14123SOL    HW146163   3.779   3.973   0.264
14123SOL    HW246164   3.886   3.853   0.296
14124SOL     OW46165   4.907   5.059   0.119
14124SOL    HW146166   4.808   5.048   0.121
14124SOL    HW246167   4.941   5.074   0.212
14125SOL     OW46168   4.337   4.566   1.431
14125SOL    HW146169   4.393   4.647   1.414
14125SOL    HW246170   4.396   4.486   1.434
14126SOL     OW46171   5.217   5.491   0.959
14126SOL    HW146172   5.250   5.555   0.890
14126SOL    HW246173   5.283   5.485   1.034
14127SOL     OW46174   4.440   4.289   1.708
14127SOL    HW146175   4.459   4.354   1.782
14127SOL    HW246176   4.500   4.209   1.717
14128SOL     OW46177   5.174   4.944   1.633
14128SOL    HW146178   5.165   4.934   1.732
14128SOL    HW246179   5.270   4.937   1.607
14129SOL     OW46180   4.114   5.465   1.560
14129SOL    HW146181   4.023   5.506   1.558
14129SOL    HW246182   4.107   5.371   1.592
14130SOL     OW46183   5.398   4.607   1.254
14130SOL    HW146184   5.371   4.518   1.217
14130SOL    HW246185   5.399   4.675   1.181
14131SOL     OW46186   4.949   4.049   0.449
14131SOL    HW146187   5.014   3.975   0.438
14131SOL    HW246188   4.969   4.099   0.533
14132SOL     OW46189   4.318   4.469   0.652
14132SOL    HW146190   4.368   4.554   0.633
14132SOL    HW246191   4.230   4.471   0.604
14133SOL     OW46192   5.501   4.066   1.642
14133SOL    HW146193   5.484   4.097   1.548
14133SOL    HW246194   5.417   4.029   1.680
14134SOL     OW46195   5.454   4.658   1.517
14134SOL    HW146196   5.492   4.749   1.532
14134SOL    HW246197   5.446   4.641   1.418
14135SOL     OW46198   4.583   5.098   0.016
14135SOL    HW146199   4.537   5.113   0.104
14135SOL    HW246200   4.627   5.183  -0.014
14136SOL     OW46201   4.385   5.514   0.953
14136SOL    HW146202   4.339   5.602   0.940
14136SOL    HW246203   4.484   5.526   0.946
14137SOL     OW46204   4.583   4.680   0.861
14137SOL    HW146205   4.637   4.611   0.909
14137SOL    HW246206   4.551   4.749   0.927
14138SOL     OW46207   4.807   4.708   0.087
14138SOL    HW146208   4.784   4.761   0.005
14138SOL    HW246209   4.888   4.652   0.068
14139SOL     OW46210   5.585   5.293   0.851
14139SOL    HW146211   5.514   5.281   0.781
14139SOL    HW246212   5.586   5.214   0.911
14140SOL     OW46213   3.945   5.038   1.844
14140SOL    HW146214   3.880   4.965   1.823
14140SOL    HW246215   3.949   5.052   1.942
14141SOL     OW46216   3.803   4.964   0.653
14141SOL    HW146217   3.802   4.917   0.741
14141SOL    HW246218   3.885   4.936   0.602
14142SOL     OW46219   4.396   5.115   1.624
14142SOL    HW146220   4.318   5.065   1.662
14142SOL    HW246221   4.393   5.210   1.655
14143SOL     OW46222   5.548   3.916   1.227
14143SOL    HW146223   5.544   3.826   1.271
14143SOL    HW246224   5.551   3.905   1.128
14144SOL     OW46225   4.152   4.148   0.520
14144SOL    HW146226   4.182   4.076   0.458
14144SOL    HW246227   4.113   4.108   0.603
14145SOL     OW46228   5.429   5.211   1.104
14145SOL    HW146229   5.336   5.186   1.077
14145SOL    HW246230   5.455   5.161   1.186
14146SOL     OW46231   4.041   4.271   1.280
14146SOL    HW146232   4.079   4.212   1.352
14146SOL    HW246233   4.081   4.245   1.192
14147SOL     OW46234   5.148   3.938   1.112
14147SOL    HW146235   5.200   3.873   1.167
14147SOL    HW246236   5.099   4.001   1.173
14148SOL     OW46237   4.725   3.758   1.154
14148SOL    HW146238   4.662   3.686   1.123
14148SOL    HW246239   4.818   3.722   1.154
14149SOL     OW46240   4.494   5.054   0.301
14149SOL    HW146241   4.448   4.967   0.318
14149SOL    HW246242   4.585   5.051   0.342
14150SOL     OW46243   4.342   5.291   1.284
14150SOL    HW146244   4.337   5.373   1.341
14150SOL    HW246245   4.431   5.288   1.239
14151SOL     OW46246   5.076   3.776   0.168
14151SOL    HW146247   5.111   3.735   0.084
14151SOL    HW246248   4.986   3.738   0.188
14152SOL     OW46249   5.024   4.177   0.691
14152SOL    HW146250   4.965   4.257   0.695
14152SOL    HW246251   5.039   4.142   0.784
14153SOL     OW46252   5.317   3.945   0.882
14153SOL    HW146253   5.233   3.944   0.936
14153SOL    HW246254   5.319   4.028   0.826
14154SOL     OW46255   3.763   4.801   0.300
14154SOL    HW146256   3.862   4.790   0.291
14154SOL    HW246257   3.723   4.715   0.332
14155SOL     OW46258   3.954   4.352   1.975
14155SOL    HW146259   3.861   4.350   2.012
14155SOL    HW246260   3.955   4.313   1.883
14156SOL     OW46261   3.949   3.999   2.858
14156SOL    HW146262   3.984   3.982   2.950
14156SOL    HW246263   3.861   3.954   2.846
14157SOL     OW46264   3.743   4.092   2.509
14157SOL    HW146265   3.661   4.135   2.548
14157SOL    HW246266   3.715   4.019   2.446
14158SOL     OW46267   4.293   4.999   3.027
14158SOL    HW146268   4.200   4.992   2.990
14158SOL    HW246269   4.304   5.088   3.071
14159SOL     OW46270   5.279   5.235   2.565
14159SOL    HW146271   5.222   5.219   2.646
14159SOL    HW246272   5.220   5.245   2.485
14160SOL     OW46273   4.859   4.427   2.579
14160SOL    HW146274   4.916   4.505   2.554
14160SOL    HW246275   4.799   4.453   2.655
14161SOL     OW46276   5.479   4.331   2.093
14161SOL    HW146277   5.467   4.318   1.994
14161SOL    HW246278   5.449   4.250   2.142
14162SOL     OW46279   4.492   4.868   2.885
14162SOL    HW146280   4.414   4.885   2.945
14162SOL    HW246281   4.526   4.955   2.849
14163SOL     OW46282   4.574   4.522   3.685
14163SOL    HW146283   4.570   4.598   3.750
14163SOL    HW246284   4.596   4.558   3.594
14164SOL     OW46285   4.409   4.736   2.527
14164SOL    HW146286   4.478   4.720   2.597
14164SOL    HW246287   4.336   4.793   2.565
14165SOL     OW46288   4.410   4.885   3.665
14165SOL    HW146289   4.470   4.964   3.679
14165SOL    HW246290   4.324   4.916   3.624
14166SOL     OW46291   4.059   5.159   2.923
14166SOL    HW146292   3.981   5.128   2.870
14166SOL    HW246293   4.117   5.217   2.866
14167SOL     OW46294   5.184   5.229   3.201
14167SOL    HW146295   5.208   5.323   3.227
14167SOL    HW246296   5.168   5.175   3.283
14168SOL     OW46297   4.162   4.116   3.361
14168SOL    HW146298   4.244   4.060   3.370
14168SOL    HW246299   4.081   4.058   3.365
14169SOL     OW46300   5.327   4.171   2.599
14169SOL    HW146301   5.253   4.217   2.549
14169SOL    HW246302   5.378   4.239   2.652
14170SOL     OW46303   3.955   5.437   2.345
14170SOL    HW146304   3.989   5.514   2.399
14170SOL    HW246305   3.999   5.437   2.255
14171SOL     OW46306   4.851   5.065   3.552
14171SOL    HW146307   4.898   5.065   3.640
14171SOL    HW246308   4.803   4.978   3.541
14172SOL     OW46309   3.954   5.158   2.400
14172SOL    HW146310   3.928   5.254   2.400
14172SOL    HW246311   3.883   5.104   2.445
14173SOL     OW46312   3.964   4.815   2.748
14173SOL    HW146313   3.978   4.731   2.800
14173SOL    HW246314   3.909   4.879   2.803
14174SOL     OW46315   4.344   5.510   3.301
14174SOL    HW146316   4.252   5.493   3.336
14174SOL    HW246317   4.372   5.602   3.327
14175SOL     OW46318   4.330   4.688   1.985
14175SOL    HW146319   4.337   4.772   1.931
14175SOL    HW246320   4.376   4.701   2.073
14176SOL     OW46321   5.318   3.838   3.342
14176SOL    HW146322   5.300   3.905   3.270
14176SOL    HW246323   5.315   3.884   3.431
14177SOL     OW46324   3.846   4.367   2.425
14177SOL    HW146325   3.801   4.279   2.442
14177SOL    HW246326   3.845   4.421   2.509
14178SOL     OW46327   5.566   5.491   2.221
14178SOL    HW146328   5.620   5.462   2.301
14178SOL    HW246329   5.596   5.581   2.192
14179SOL     OW46330   3.751   5.320   1.979
14179SOL    HW146331   3.732   5.224   2.000
14179SOL    HW246332   3.718   5.378   2.054
14180SOL     OW46333   5.413   4.646   2.474
14180SOL    HW146334   5.508   4.617   2.482
14180SOL    HW246335   5.405   4.711   2.399
14181SOL     OW46336   5.365   4.832   2.294
14181SOL    HW146337   5.451   4.834   2.242
14181SOL    HW246338   5.379   4.879   2.382
14182SOL     OW46339   3.837   4.461   3.459
14182SOL    HW146340   3.925   4.448   3.504
14182SOL    HW246341   3.824   4.558   3.437
14183SOL     OW46342   4.337   5.089   2.588
14183SOL    HW146343   4.288   5.002   2.597
14183SOL    HW246344   4.314   5.132   2.501
14184SOL     OW46345   5.017   4.952   3.285
14184SOL    HW146346   5.054   4.879   3.227
14184SOL    HW246347   5.069   4.957   3.370
14185SOL     OW46348   4.533   3.728   2.364
14185SOL    HW146349   4.573   3.819   2.355
14185SOL    HW246350   4.433   3.736   2.370
14186SOL     OW46351   3.921   4.700   3.126
14186SOL    HW146352   4.010   4.655   3.112
14186SOL    HW246353   3.848   4.635   3.107
14187SOL     OW46354   5.249   4.723   2.052
14187SOL    HW146355   5.186   4.647   2.065
14187SOL    HW246356   5.297   4.741   2.138
14188SOL     OW46357   4.911   5.516   3.478
14188SOL    HW146358   4.935   5.576   3.402
14188SOL    HW246359   4.918   5.421   3.448
14189SOL     OW46360   4.041   3.975   3.663
14189SOL    HW146361   4.112   4.046   3.669
14189SOL    HW246362   3.953   4.014   3.691
14190SOL     OW46363   5.190   5.141   2.815
14190SOL    HW146364   5.131   5.147   2.895
14190SOL    HW246365   5.175   5.053   2.769
14191SOL     OW46366   5.391   5.438   2.434
14191SOL    HW146367   5.350   5.415   2.346
14191SOL    HW246368   5.373   5.364   2.499
14192SOL     OW46369   4.322   4.453   2.132
14192SOL    HW146370   4.346   4.522   2.064
14192SOL    HW246371   4.244   4.486   2.186
14193SOL     OW46372   5.005   4.069   2.806
14193SOL    HW146373   4.919   4.019   2.793
14193SOL    HW246374   5.067   4.015   2.862
14194SOL     OW46375   5.300   5.386   2.169
14194SOL    HW146376   5.389   5.432   2.172
14194SOL    HW246377   5.279   5.362   2.074
14195SOL     OW46378   4.531   4.329   3.327
14195SOL    HW146379   4.484   4.326   3.416
14195SOL    HW246380   4.480   4.274   3.261
14196SOL     OW46381   5.118   4.193   3.536
14196SOL    HW146382   5.098   4.236   3.624
14196SOL    HW246383   5.196   4.131   3.545
14197SOL     OW46384   4.697   4.614   3.434
14197SOL    HW146385   4.743   4.530   3.405
14197SOL    HW246386   4.641   4.648   3.359
14198SOL     OW46387   4.715   4.134   3.104
14198SOL    HW146388   4.638   4.168   3.158
14198SOL    HW246389   4.681   4.083   3.025
14199SOL     OW46390   4.765   4.425   2.291
14199SOL    HW146391   4.791   4.421   2.387
14199SOL    HW246392   4.680   4.374   2.277
14200SOL     OW46393   3.800   4.535   2.651
14200SOL    HW146394   3.899   4.523   2.660
14200SOL    HW246395   3.776   4.630   2.672
14201SOL     OW46396   3.854   5.545   3.433
14201SOL    HW146397   3.844   5.530   3.532
14201SOL    HW246398   3.768   5.581   3.397
14202SOL     OW46399   4.589   4.072   2.057
14202SOL    HW146400   4.648   4.135   2.008
14202SOL    HW246401   4.608   3.978   2.028
14203SOL     OW46402   5.443   4.309   3.693
14203SOL    HW146403   5.417   4.398   3.657
14203SOL    HW246404   5.441   4.241   3.620
14204SOL     OW46405   5.086   4.868   2.407
14204SOL    HW146406   5.169   4.839   2.359
14204SOL    HW246407   5.037   4.935   2.351
14205SOL     OW46408   4.274   3.920   2.747
14205SOL    HW146409   4.269   3.915   2.847
14205SOL    HW246410   4.276   4.016   2.718
14206SOL     OW46411   4.732   5.180   2.339
14206SOL    HW146412   4.686   5.252   2.287
14206SOL    HW246413   4.728   5.200   2.437
14207SOL     OW46414   4.075   5.525   2.715
14207SOL    HW146415   4.125   5.439   2.721
14207SOL    HW246416   4.140   5.602   2.712
14208SOL     OW46417   5.519   4.790   2.735
14208SOL    HW146418   5.457   4.775   2.659
14208SOL    HW246419   5.467   4.801   2.820
14209SOL     OW46420   4.951   5.274   3.368
14209SOL    HW146421   4.957   5.197   3.432
14209SOL    HW246422   4.899   5.248   3.288
14210SOL     OW46423   4.045   4.667   2.104
14210SOL    HW146424   4.127   4.706   2.062
14210SOL    HW246425   4.018   4.585   2.055
14211SOL     OW46426   5.182   4.459   2.590
14211SOL    HW146427   5.177   4.394   2.665
14211SOL    HW246428   5.262   4.518   2.603
14212SOL     OW46429   4.185   4.990   3.589
14212SOL    HW146430   4.135   4.991   3.503
14212SOL    HW246431   4.122   4.972   3.665
14213SOL     OW46432   4.835   5.500   2.099
14213SOL    HW146433   4.775   5.438   2.149
14213SOL    HW246434   4.866   5.456   2.014
14214SOL     OW46435   3.926   4.009   3.360
14214SOL    HW146436   3.846   4.069   3.347
14214SOL    HW246437   3.916   3.960   3.446
14215SOL     OW46438   5.356   5.101   1.943
14215SOL    HW146439   5.324   5.195   1.933
14215SOL    HW246440   5.280   5.038   1.931
14216SOL     OW46441   4.188   5.467   2.185
14216SOL    HW146442   4.221   5.506   2.271
14216SOL    HW246443   4.264   5.460   2.120
14217SOL     OW46444   5.124   3.831   2.288
14217SOL    HW146445   5.100   3.794   2.198
14217SOL    HW246446   5.223   3.847   2.292
14218SOL     OW46447   3.973   5.509   3.103
14218SOL    HW146448   4.030   5.444   3.153
14218SOL    HW246449   3.957   5.476   3.010
14219SOL     OW46450   4.664   5.422   2.766
14219SOL    HW146451   4.744   5.365   2.787
14219SOL    HW246452   4.615   5.382   2.689
14220SOL     OW46453   4.106   4.424   2.342
14220SOL    HW146454   4.151   4.334   2.339
14220SOL    HW246455   4.012   4.413   2.375
14221SOL     OW46456   5.271   3.946   3.591
14221SOL    HW146457   5.266   3.983   3.683
14221SOL    HW246458   5.199   3.877   3.579
14222SOL     OW46459   4.338   3.846   1.979
14222SOL    HW146460   4.436   3.824   1.986
14222SOL    HW246461   4.307   3.829   1.886
14223SOL     OW46462   4.505   3.988   3.611
14223SOL    HW146463   4.572   3.927   3.654
14223SOL    HW246464   4.432   4.007   3.676
14224SOL     OW46465   4.612   5.238   3.057
14224SOL    HW146466   4.589   5.213   2.963
14224SOL    HW246467   4.673   5.169   3.096
14225SOL     OW46468   5.075   4.314   3.295
14225SOL    HW146469   5.103   4.271   3.380
14225SOL    HW246470   5.100   4.410   3.296
14226SOL     OW46471   4.527   5.126   2.786
14226SOL    HW146472   4.617   5.140   2.744
14226SOL    HW246473   4.456   5.128   2.715
14227SOL     OW46474   4.646   4.227   2.761
14227SOL    HW146475   4.621   4.218   2.665
14227SOL    HW246476   4.694   4.145   2.792
14228SOL     OW46477   4.263   3.788   2.374
14228SOL    HW146478   4.182   3.789   2.432
14228SOL    HW246479   4.266   3.871   2.319
14229SOL     OW46480   5.158   4.912   1.903
14229SOL    HW146481   5.190   4.836   1.960
14229SOL    HW246482   5.066   4.939   1.933
14230SOL     OW46483   4.021   3.759   2.033
14230SOL    HW146484   4.070   3.843   2.012
14230SOL    HW246485   4.083   3.694   2.078
14231SOL     OW46486   4.659   3.960   2.342
14231SOL    HW146487   4.611   4.001   2.264
14231SOL    HW246488   4.758   3.958   2.323
14232SOL     OW46489   4.800   4.407   3.326
14232SOL    HW146490   4.720   4.346   3.329
14232SOL    HW246491   4.881   4.354   3.302
14233SOL     OW46492   4.951   5.294   2.655
14233SOL    HW146493   4.972   5.368   2.590
14233SOL    HW246494   5.019   5.294   2.728
14234SOL     OW46495   4.183   4.876   2.603
14234SOL    HW146496   4.112   4.849   2.668
14234SOL    HW246497   4.157   4.848   2.510
14235SOL     OW46498   4.995   5.521   2.453
14235SOL    HW146499   5.039   5.585   2.389
14235SOL    HW246500   4.945   5.573   2.523
14236SOL     OW46501   4.756   4.273   1.878
14236SOL    HW146502   4.715   4.355   1.839
14236SOL    HW246503   4.820   4.299   1.951
14237SOL     OW46504   3.802   4.280   3.248
14237SOL    HW146505   3.894   4.279   3.207
14237SOL    HW246506   3.796   4.354   3.315
14238SOL     OW46507   4.285   3.946   3.009
14238SOL    HW146508   4.323   3.862   3.046
14238SOL    HW246509   4.197   3.965   3.053
14239SOL     OW46510   4.590   4.178   2.504
14239SOL    HW146511   4.558   4.250   2.442
14239SOL    HW246512   4.614   4.097   2.451
14240SOL     OW46513   4.741   3.763   2.615
14240SOL    HW146514   4.669   3.768   2.546
14240SOL    HW246515   4.717   3.694   2.684
14241SOL     OW46516   5.153   4.897   2.729
14241SOL    HW146517   5.098   4.813   2.722
14241SOL    HW246518   5.179   4.926   2.637
14242SOL     OW46519   5.190   4.314   2.854
14242SOL    HW146520   5.160   4.219   2.861
14242SOL    HW246521   5.263   4.330   2.920
14243SOL     OW46522   5.581   4.557   2.239
14243SOL    HW146523   5.623   4.493   2.303
14243SOL    HW246524   5.543   4.506   2.161
14244SOL     OW46525   4.212   5.109   2.036
14244SOL    HW146526   4.125   5.094   2.083
14244SOL    HW246527   4.195   5.135   1.941
14245SOL     OW46528   5.388   5.004   2.519
14245SOL    HW146529   5.487   5.012   2.533
14245SOL    HW246530   5.343   5.088   2.550
14246SOL     OW46531   5.114   4.299   1.940
14246SOL    HW146532   5.060   4.278   2.021
14246SOL    HW246533   5.205   4.258   1.949
14247SOL     OW46534   4.251   3.980   2.190
14247SOL    HW146535   4.278   3.921   2.115
14247SOL    HW246536   4.251   4.075   2.159
14248SOL     OW46537   5.478   4.947   3.450
14248SOL    HW146538   5.569   4.908   3.437
14248SOL    HW246539   5.486   5.043   3.474
14249SOL     OW46540   4.788   5.071   3.202
14249SOL    HW146541   4.708   5.048   3.257
14249SOL    HW246542   4.871   5.045   3.251
14250SOL     OW46543   5.316   5.353   3.487
14250SOL    HW146544   5.343   5.387   3.397
14250SOL    HW246545   5.395   5.315   3.533
14251SOL     OW46546   4.835   4.919   2.962
14251SOL    HW146547   4.795   4.963   3.043
14251SOL    HW246548   4.794   4.956   2.879
14252SOL     OW46549   5.362   4.823   2.941
14252SOL    HW146550   5.367   4.904   3.000
14252SOL    HW246551   5.276   4.825   2.890
14253SOL     OW46552   4.639   3.813   3.264
14253SOL    HW146553   4.664   3.793   3.169
14253SOL    HW246554   4.711   3.869   3.306
14254SOL     OW46555   4.704   4.840   3.581
14254SOL    HW146556   4.605   4.846   3.591
14254SOL    HW246557   4.727   4.760   3.525
14255SOL     OW46558   4.429   4.774   2.230
14255SOL    HW146559   4.415   4.781   2.329
14255SOL    HW246560   4.513   4.723   2.212
14256SOL     OW46561   4.134   4.537   3.113
14256SOL    HW146562   4.220   4.549   3.163
14256SOL    HW246563   4.092   4.450   3.140
14257SOL     OW46564   4.998   4.110   3.124
14257SOL    HW146565   5.019   4.184   3.188
14257SOL    HW246566   4.909   4.127   3.081
14258SOL     OW46567   3.788   5.288   3.193
14258SOL    HW146568   3.742   5.370   3.159
14258SOL    HW246569   3.886   5.307   3.202
14259SOL     OW46570   4.091   4.824   2.363
14259SOL    HW146571   4.084   4.907   2.307
14259SOL    HW246572   4.095   4.744   2.303
14260SOL     OW46573   4.290   4.261   2.727
14260SOL    HW146574   4.302   4.327   2.653
14260SOL    HW246575   4.336   4.295   2.810
14261SOL     OW46576   4.976   5.072   2.250
14261SOL    HW146577   5.026   5.149   2.290
14261SOL    HW246578   4.881   5.074   2.282
14262SOL     OW46579   4.996   5.169   3.004
14262SOL    HW146580   5.043   5.182   3.091
14262SOL    HW246581   4.930   5.095   3.013
14263SOL     OW46582   5.306   4.363   2.334
14263SOL    HW146583   5.275   4.424   2.407
14263SOL    HW246584   5.356   4.415   2.265
14264SOL     OW46585   4.078   5.234   3.191
14264SOL    HW146586   4.057   5.190   3.104
14264SOL    HW246587   4.175   5.260   3.194
14265SOL     OW46588   4.126   4.475   3.460
14265SOL    HW146589   4.194   4.530   3.413
14265SOL    HW246590   4.166   4.387   3.487
14266SOL     OW46591   5.311   4.503   3.532
14266SOL    HW146592   5.219   4.541   3.527
14266SOL    HW246593   5.371   4.550   3.467
14267SOL     OW46594   4.737   3.829   3.632
14267SOL    HW146595   4.743   3.914   3.580
14267SOL    HW246596   4.769   3.753   3.575
14268SOL     OW46597   4.228   3.774   3.602
14268SOL    HW146598   4.186   3.717   3.532
14268SOL    HW246599   4.162   3.843   3.634
14269SOL     OW46600   4.297   4.594   2.891
14269SOL    HW146601   4.341   4.683   2.882
14269SOL    HW246602   4.234   4.594   2.968
14270SOL     OW46603   5.084   4.586   2.907
14270SOL    HW146604   5.009   4.586   2.841
14270SOL    HW246605   5.121   4.494   2.916
14271SOL     OW46606   4.933   4.249   2.137
14271SOL    HW146607   4.946   4.165   2.191
14271SOL    HW246608   4.904   4.323   2.197
14272SOL     OW46609   4.031   3.937   3.093
14272SOL    HW146610   4.008   3.974   3.183
14272SOL    HW246611   4.001   3.842   3.087
14273SOL     OW46612   3.761   5.034   3.144
14273SOL    HW146613   3.814   4.985   3.212
14273SOL    HW246614   3.783   5.132   3.149
14274SOL     OW46615   4.456   4.358   2.926
14274SOL    HW146616   4.515   4.332   2.850
14274SOL    HW246617   4.428   4.454   2.915
14275SOL     OW46618   5.452   4.659   3.716
14275SOL    HW146619   5.406   4.652   3.627
14275SOL    HW246620   5.390   4.703   3.782
14276SOL     OW46621   4.031   3.787   2.480
14276SOL    HW146622   4.020   3.881   2.513
14276SOL    HW246623   4.026   3.724   2.557
14277SOL     OW46624   5.346   4.091   2.236
14277SOL    HW146625   5.348   4.015   2.300
14277SOL    HW246626   5.298   4.168   2.276
14278SOL     OW46627   4.747   4.490   2.828
14278SOL    HW146628   4.762   4.511   2.924
14278SOL    HW246629   4.717   4.395   2.819
14279SOL     OW46630   4.704   5.297   3.562
14279SOL    HW146631   4.684   5.341   3.474
14279SOL    HW246632   4.743   5.206   3.546
14280SOL     OW46633   5.583   5.242   3.467
14280SOL    HW146634   5.597   5.269   3.372
14280SOL    HW246635   5.666   5.264   3.520
14281SOL     OW46636   4.074   4.622   3.666
14281SOL    HW146637   4.150   4.666   3.714
14281SOL    HW246638   4.109   4.575   3.584
14282SOL     OW46639   5.264   3.998   1.987
14282SOL    HW146640   5.203   3.923   2.010
14282SOL    HW246641   5.286   4.050   2.070
14283SOL     OW46642   5.027   4.562   1.904
14283SOL    HW146643   5.061   4.469   1.919
14283SOL    HW246644   5.045   4.589   1.809
14284SOL     OW46645   4.792   5.057   2.711
14284SOL    HW146646   4.799   4.973   2.656
14284SOL    HW246647   4.854   5.126   2.675
14285SOL     OW46648   4.043   4.534   2.811
14285SOL    HW146649   4.136   4.570   2.816
14285SOL    HW246650   4.037   4.449   2.863
14286SOL     OW46651   4.063   4.233   2.868
14286SOL    HW146652   4.011   4.150   2.851
14286SOL    HW246653   4.140   4.238   2.804
14287SOL     OW46654   4.862   4.104   3.540
14287SOL    HW146655   4.817   4.167   3.604
14287SOL    HW246656   4.955   4.135   3.523
14288SOL     OW46657   4.884   3.931   3.339
14288SOL    HW146658   4.884   3.995   3.416
14288SOL    HW246659   4.912   3.979   3.256
14289SOL     OW46660   3.732   5.050   2.062
14289SOL    HW146661   3.639   5.071   2.031
14289SOL    HW246662   3.742   4.951   2.075
14290SOL     OW46663   3.812   5.525   2.789
14290SOL    HW146664   3.770   5.439   2.762
14290SOL    HW246665   3.906   5.528   2.755
14291SOL     OW46666   4.228   5.292   2.772
14291SOL    HW146667   4.294   5.366   2.781
14291SOL    HW246668   4.272   5.213   2.730
14292SOL     OW46669   4.726   4.520   3.100
14292SOL    HW146670   4.767   4.488   3.186
14292SOL    HW246671   4.630   4.493   3.097
14293SOL     OW46672   3.764   4.268   2.976
14293SOL    HW146673   3.849   4.235   2.935
14293SOL    HW246674   3.777   4.283   3.074
14294SOL     OW46675   3.913   4.244   3.584
14294SOL    HW146676   3.972   4.204   3.514
14294SOL    HW246677   3.855   4.315   3.543
14295SOL     OW46678   5.093   4.674   3.522
14295SOL    HW146679   5.132   4.763   3.542
14295SOL    HW246680   5.103   4.654   3.425
14296SOL     OW46681   4.539   4.296   2.187
14296SOL    HW146682   4.546   4.207   2.141
14296SOL    HW246683   4.445   4.330   2.179
14297SOL     OW46684   5.381   4.328   3.068
14297SOL    HW146685   5.343   4.259   3.130
14297SOL    HW246686   5.463   4.292   3.024
14298SOL     OW46687   3.976   5.288   3.606
14298SOL    HW146688   3.946   5.345   3.682
14298SOL    HW246689   3.969   5.191   3.632
14299SOL     OW46690   4.395   4.188   3.131
14299SOL    HW146691   4.361   4.099   3.101
14299SOL    HW246692   4.421   4.242   3.051
14300SOL     OW46693   4.654   5.402   3.327
14300SOL    HW146694   4.630   5.384   3.232
14300SOL    HW246695   4.684   5.496   3.337
14301SOL     OW46696   4.197   4.224   2.053
14301SOL    HW146697   4.258   4.304   2.057
14301SOL    HW246698   4.102   4.255   2.060
14302SOL     OW46699   3.883   4.861   3.328
14302SOL    HW146700   3.905   4.800   3.404
14302SOL    HW246701   3.893   4.812   3.242
14303SOL     OW46702   5.071   4.783   3.096
14303SOL    HW146703   5.095   4.720   3.022
14303SOL    HW246704   4.981   4.823   3.078
14304SOL     OW46705   5.026   4.579   2.171
14304SOL    HW146706   4.940   4.548   2.213
14304SOL    HW246707   5.022   4.565   2.072
14305SOL     OW46708   5.483   5.471   3.016
14305SOL    HW146709   5.544   5.501   2.943
14305SOL    HW246710   5.445   5.382   2.994
14306SOL     OW46711   4.976   5.455   2.990
14306SOL    HW146712   5.060   5.460   2.936
14306SOL    HW246713   4.953   5.359   3.008
14307SOL     OW46714   3.807   4.982   2.884
14307SOL    HW146715   3.802   4.981   2.984
14307SOL    HW246716   3.724   4.941   2.846
14308SOL     OW46717   4.412   5.386   3.578
14308SOL    HW146718   4.356   5.467   3.587
14308SOL    HW246719   4.464   5.390   3.492
14309SOL     OW46720   5.450   3.859   2.385
14309SOL    HW146721   5.523   3.842   2.318
14309SOL    HW246722   5.419   3.772   2.423
14310SOL     OW46723   5.112   5.297   2.339
14310SOL    HW146724   5.179   5.309   2.265
14310SOL    HW246725   5.072   5.386   2.362
14311SOL     OW46726   3.854   5.518   3.713
14311SOL    HW146727   3.813   5.444   3.766
14311SOL    HW246728   3.918   5.569   3.771
14312SOL     OW46729   5.004   4.651   2.534
14312SOL    HW146730   5.064   4.570   2.536
14312SOL    HW246731   5.044   4.720   2.474
14313SOL     OW46732   4.554   4.997   3.284
14313SOL    HW146733   4.549   5.030   3.379
14313SOL    HW246734   4.468   5.016   3.238
14314SOL     OW46735   4.396   5.340   2.016
14314SOL    HW146736   4.405   5.350   1.917
14314SOL    HW246737   4.356   5.251   2.037
14315SOL     OW46738   5.374   5.444   3.256
14315SOL    HW146739   5.427   5.454   3.172
14315SOL    HW246740   5.347   5.534   3.290
14316SOL     OW46741   5.565   3.899   2.825
14316SOL    HW146742   5.604   3.814   2.789
14316SOL    HW246743   5.467   3.901   2.806
14317SOL     OW46744   3.987   4.050   2.582
14317SOL    HW146745   3.908   4.101   2.548
14317SOL    HW246746   3.978   4.035   2.680
14318SOL     OW46747   4.918   5.336   1.893
14318SOL    HW146748   4.924   5.243   1.930
14318SOL    HW246749   4.859   5.336   1.813
14319SOL     OW46750   4.546   4.726   3.234
14319SOL    HW146751   4.586   4.725   3.142
14319SOL    HW246752   4.556   4.818   3.274
14320SOL     OW46753   4.640   4.634   2.153
14320SOL    HW146754   4.703   4.672   2.085
14320SOL    HW246755   4.680   4.551   2.192
14321SOL     OW46756   5.228   5.331   1.906
14321SOL    HW146757   5.136   5.368   1.913
14321SOL    HW246758   5.266   5.351   1.816
14322SOL     OW46759   4.096   5.012   3.352
14322SOL    HW146760   4.083   5.105   3.318
14322SOL    HW246761   4.012   4.960   3.339
14323SOL     OW46762   5.338   5.016   3.151
14323SOL    HW146763   5.398   5.019   3.231
14323SOL    HW246764   5.263   5.080   3.164
14324SOL     OW46765   4.763   4.822   2.558
14324SOL    HW146766   4.693   4.775   2.612
14324SOL    HW246767   4.822   4.754   2.515
14325SOL     OW46768   4.738   3.960   2.833
14325SOL    HW146769   4.730   3.924   2.740
14325SOL    HW246770   4.736   3.884   2.898
14326SOL     OW46771   4.314   5.211   2.353
14326SOL    HW146772   4.356   5.153   2.283
14326SOL    HW246773   4.270   5.290   2.309
14327SOL     OW46774   5.433   4.109   3.243
14327SOL    HW146775   5.506   4.178   3.247
14327SOL    HW246776   5.461   4.034   3.184
14328SOL     OW46777   3.979   5.072   2.152
14328SOL    HW146778   3.883   5.073   2.125
14328SOL    HW246779   3.991   5.125   2.236
14329SOL     OW46780   3.829   4.737   3.588
14329SOL    HW146781   3.752   4.704   3.642
14329SOL    HW246782   3.914   4.707   3.630
14330SOL     OW46783   4.396   3.927   3.351
14330SOL    HW146784   4.486   3.911   3.311
14330SOL    HW246785   4.404   3.932   3.450
14331SOL     OW46786   3.799   4.069   1.895
14331SOL    HW146787   3.707   4.041   1.866
14331SOL    HW246788   3.830   4.146   1.839
14332SOL     OW46789   5.164   4.580   3.260
14332SOL    HW146790   5.107   4.632   3.197
14332SOL    HW246791   5.260   4.592   3.236
14333SOL     OW46792   3.796   3.890   2.180
14333SOL    HW146793   3.779   3.973   2.126
14333SOL    HW246794   3.886   3.853   2.158
14334SOL     OW46795   4.907   5.059   1.981
14334SOL    HW146796   4.808   5.048   1.983
14334SOL    HW246797   4.941   5.074   2.074
14335SOL     OW46798   4.337   4.566   3.293
14335SOL    HW146799   4.393   4.647   3.276
14335SOL    HW246800   4.396   4.486   3.296
14336SOL     OW46801   5.217   5.491   2.821
14336SOL    HW146802   5.250   5.555   2.752
14336SOL    HW246803   5.283   5.485   2.896
14337SOL     OW46804   4.440   4.289   3.570
14337SOL    HW146805   4.459   4.354   3.644
14337SOL    HW246806   4.500   4.209   3.579
14338SOL     OW46807   5.174   4.944   3.495
14338SOL    HW146808   5.165   4.934   3.594
14338SOL    HW246809   5.270   4.937   3.469
14339SOL     OW46810   4.114   5.465   3.422
14339SOL    HW146811   4.023   5.506   3.420
14339SOL    HW246812   4.107   5.371   3.454
14340SOL     OW46813   5.398   4.607   3.116
14340SOL    HW146814   5.371   4.518   3.079
14340SOL    HW246815   5.399   4.675   3.043
14341SOL     OW46816   4.949   4.049   2.311
14341SOL    HW146817   5.014   3.975   2.300
14341SOL    HW246818   4.969   4.099   2.395
14342SOL     OW46819   4.318   4.469   2.514
14342SOL    HW146820   4.368   4.554   2.495
14342SOL    HW246821   4.230   4.471   2.466
14343SOL     OW46822   5.501   4.066   3.504
14343SOL    HW146823   5.484   4.097   3.410
14343SOL    HW246824   5.417   4.029   3.542
14344SOL     OW46825   5.454   4.658   3.379
14344SOL    HW146826   5.492   4.749   3.394
14344SOL    HW246827   5.446   4.641   3.280
14345SOL     OW46828   4.583   5.098   1.878
14345SOL    HW146829   4.537   5.113   1.966
14345SOL    HW246830   4.627   5.183   1.848
14346SOL     OW46831   4.385   5.514   2.815
14346SOL    HW146832   4.339   5.602   2.802
14346SOL    HW246833   4.484   5.526   2.808
14347SOL     OW46834   4.583   4.680   2.723
14347SOL    HW146835   4.637   4.611   2.771
14347SOL    HW246836   4.551   4.749   2.789
14348SOL     OW46837   4.807   4.708   1.949
14348SOL    HW146838   4.784   4.761   1.867
14348SOL    HW246839   4.888   4.652   1.930
14349SOL     OW46840   5.585   5.293   2.713
14349SOL    HW146841   5.514   5.281   2.643
14349SOL    HW246842   5.586   5.214   2.773
14350SOL     OW46843   3.945   5.038   3.706
14350SOL    HW146844   3.880   4.965   3.685
14350SOL    HW246845   3.949   5.052   3.804
14351SOL     OW46846   3.803   4.964   2.515
14351SOL    HW146847   3.802   4.917   2.603
14351SOL    HW246848   3.885   4.936   2.464
14352SOL     OW46849   4.396   5.115   3.486
14352SOL    HW146850   4.318   5.065   3.524
14352SOL    HW246851   4.393   5.210   3.517
14353SOL     OW46852   5.548   3.916   3.089
14353SOL    HW146853   5.544   3.826   3.133
14353SOL    HW246854   5.551   3.905   2.990
14354SOL     OW46855   4.152   4.148   2.382
14354SOL    HW146856   4.182   4.076   2.320
14354SOL    HW246857   4.113   4.108   2.465
14355SOL     OW46858   5.429   5.211   2.966
14355SOL    HW146859   5.336   5.186   2.939
14355SOL    HW246860   5.455   5.161   3.048
14356SOL     OW46861   4.041   4.271   3.142
14356SOL    HW146862   4.079   4.212   3.214
14356SOL    HW246863   4.081   4.245   3.054
14357SOL     OW46864   4.536   5.310   2.549
14357SOL    HW146865   4.568   5.320   2.455
14357SOL    HW246866   4.457   5.248   2.551
14358SOL     OW46867   5.148   3.938   2.974
14358SOL    HW146868   5.200   3.873   3.029
14358SOL    HW246869   5.099   4.001   3.035
14359SOL     OW46870   4.725   3.758   3.016
14359SOL    HW146871   4.662   3.686   2.985
14359SOL    HW246872   4.818   3.722   3.016
14360SOL     OW46873   4.494   5.054   2.163
14360SOL    HW146874   4.448   4.967   2.180
14360SOL    HW246875   4.585   5.051   2.204
14361SOL     OW46876   4.342   5.291   3.146
14361SOL    HW146877   4.337   5.373   3.203
14361SOL    HW246878   4.431   5.288   3.101
14362SOL     OW46879   5.076   3.776   2.030
14362SOL    HW146880   5.111   3.735   1.946
14362SOL    HW246881   4.986   3.738   2.050
14363SOL     OW46882   5.024   4.177   2.553
14363SOL    HW146883   4.965   4.257   2.557
14363SOL    HW246884   5.039   4.142   2.646
14364SOL     OW46885   5.317   3.945   2.744
14364SOL    HW146886   5.233   3.944   2.798
14364SOL    HW246887   5.319   4.028   2.688
14365SOL     OW46888   3.763   4.801   2.162
14365SOL    HW146889   3.862   4.790   2.153
14365SOL    HW246890   3.723   4.715   2.194
14366SOL     OW46891   4.599   5.370   2.199
14366SOL    HW146892   4.522   5.335   2.145
14366SOL    HW246893   4.567   5.441   2.261
14367SOL     OW46894   3.954   4.352   3.837
14367SOL    HW146895   3.861   4.350   3.874
14367SOL    HW246896   3.955   4.313   3.745
14368SOL     OW46897   3.949   3.999   4.720
14368SOL    HW146898   3.984   3.982   4.812
14368SOL    HW246899   3.861   3.954   4.708
14369SOL     OW46900   3.743   4.092   4.371
14369SOL    HW146901   3.661   4.135   4.410
14369SOL    HW246902   3.715   4.019   4.308
14370SOL     OW46903   4.293   4.999   4.889
14370SOL    HW146904   4.200   4.992   4.852
14370SOL    HW246905   4.304   5.088   4.933
14371SOL     OW46906   5.279   5.235   4.427
14371SOL    HW146907   5.222   5.219   4.508
14371SOL    HW246908   5.220   5.245   4.347
14372SOL     OW46909   4.859   4.427   4.441
14372SOL    HW146910   4.916   4.505   4.416
14372SOL    HW246911   4.799   4.453   4.517
14373SOL     OW46912   5.479   4.331   3.955
14373SOL    HW146913   5.467   4.318   3.856
14373SOL    HW246914   5.449   4.250   4.004
14374SOL     OW46915   4.492   4.868   4.747
14374SOL    HW146916   4.414   4.885   4.807
14374SOL    HW246917   4.526   4.955   4.711
14375SOL     OW46918   4.574   4.522   5.547
14375SOL    HW146919   4.570   4.598   5.612
14375SOL    HW246920   4.596   4.558   5.456
14376SOL     OW46921   4.409   4.736   4.389
14376SOL    HW146922   4.478   4.720   4.459
14376SOL    HW246923   4.336   4.793   4.427
14377SOL     OW46924   4.410   4.885   5.527
14377SOL    HW146925   4.470   4.964   5.541
14377SOL    HW246926   4.324   4.916   5.486
14378SOL     OW46927   4.059   5.159   4.785
14378SOL    HW146928   3.981   5.128   4.732
14378SOL    HW246929   4.117   5.217   4.728
14379SOL     OW46930   5.184   5.229   5.063
14379SOL    HW146931   5.208   5.323   5.089
14379SOL    HW246932   5.168   5.175   5.145
14380SOL     OW46933   4.162   4.116   5.223
14380SOL    HW146934   4.244   4.060   5.232
14380SOL    HW246935   4.081   4.058   5.227
14381SOL     OW46936   5.327   4.171   4.461
14381SOL    HW146937   5.253   4.217   4.411
14381SOL    HW246938   5.378   4.239   4.514
14382SOL     OW46939   3.955   5.437   4.207
14382SOL    HW146940   3.989   5.514   4.261
14382SOL    HW246941   3.999   5.437   4.117
14383SOL     OW46942   4.851   5.065   5.414
14383SOL    HW146943   4.898   5.065   5.502
14383SOL    HW246944   4.803   4.978   5.403
14384SOL     OW46945   3.954   5.158   4.262
14384SOL    HW146946   3.928   5.254   4.262
14384SOL    HW246947   3.883   5.104   4.307
14385SOL     OW46948   3.964   4.815   4.610
14385SOL    HW146949   3.978   4.731   4.662
14385SOL    HW246950   3.909   4.879   4.665
14386SOL     OW46951   4.344   5.510   5.163
14386SOL    HW146952   4.252   5.493   5.198
14386SOL    HW246953   4.372   5.602   5.189
14387SOL     OW46954   4.330   4.688   3.847
14387SOL    HW146955   4.337   4.772   3.793
14387SOL    HW246956   4.376   4.701   3.935
14388SOL     OW46957   5.318   3.838   5.204
14388SOL    HW146958   5.300   3.905   5.132
14388SOL    HW246959   5.315   3.884   5.293
14389SOL     OW46960   3.846   4.367   4.287
14389SOL    HW146961   3.801   4.279   4.304
14389SOL    HW246962   3.845   4.421   4.371
14390SOL     OW46963   5.566   5.491   4.083
14390SOL    HW146964   5.620   5.462   4.163
14390SOL    HW246965   5.596   5.581   4.054
14391SOL     OW46966   3.751   5.320   3.841
14391SOL    HW146967   3.732   5.224   3.862
14391SOL    HW246968   3.718   5.378   3.916
14392SOL     OW46969   5.413   4.646   4.336
14392SOL    HW146970   5.508   4.617   4.344
14392SOL    HW246971   5.405   4.711   4.261
14393SOL     OW46972   5.365   4.832   4.156
14393SOL    HW146973   5.451   4.834   4.104
14393SOL    HW246974   5.379   4.879   4.244
14394SOL     OW46975   3.837   4.461   5.321
14394SOL    HW146976   3.925   4.448   5.366
14394SOL    HW246977   3.824   4.558   5.299
14395SOL     OW46978   4.337   5.089   4.450
14395SOL    HW146979   4.288   5.002   4.459
14395SOL    HW246980   4.314   5.132   4.363
14396SOL     OW46981   5.017   4.952   5.147
14396SOL    HW146982   5.054   4.879   5.089
14396SOL    HW246983   5.069   4.957   5.232
14397SOL     OW46984   4.533   3.728   4.226
14397SOL    HW146985   4.573   3.819   4.217
14397SOL    HW246986   4.433   3.736   4.232
14398SOL     OW46987   3.921   4.700   4.988
14398SOL    HW146988   4.010   4.655   4.974
14398SOL    HW246989   3.848   4.635   4.969
14399SOL     OW46990   5.249   4.723   3.914
14399SOL    HW146991   5.186   4.647   3.927
14399SOL    HW246992   5.297   4.741   4.000
14400SOL     OW46993   4.911   5.516   5.340
14400SOL    HW146994   4.935   5.576   5.264
14400SOL    HW246995   4.918   5.421   5.310
14401SOL     OW46996   4.041   3.975   5.525
14401SOL    HW146997   4.112   4.046   5.531
14401SOL    HW246998   3.953   4.014   5.553
14402SOL     OW46999   5.190   5.141   4.677
14402SOL    HW147000   5.131   5.147   4.757
14402SOL    HW247001   5.175   5.053   4.631
14403SOL     OW47002   5.391   5.438   4.296
14403SOL    HW147003   5.350   5.415   4.208
14403SOL    HW247004   5.373   5.364   4.361
14404SOL     OW47005   4.322   4.453   3.994
14404SOL    HW147006   4.346   4.522   3.926
14404SOL    HW247007   4.244   4.486   4.048
14405SOL     OW47008   5.005   4.069   4.668
14405SOL    HW147009   4.919   4.019   4.655
14405SOL    HW247010   5.067   4.015   4.724
14406SOL     OW47011   5.300   5.386   4.031
14406SOL    HW147012   5.389   5.432   4.034
14406SOL    HW247013   5.279   5.362   3.936
14407SOL     OW47014   4.531   4.329   5.189
14407SOL    HW147015   4.484   4.326   5.278
14407SOL    HW247016   4.480   4.274   5.123
14408SOL     OW47017   5.118   4.193   5.398
14408SOL    HW147018   5.098   4.236   5.486
14408SOL    HW247019   5.196   4.131   5.407
14409SOL     OW47020   4.697   4.614   5.296
14409SOL    HW147021   4.743   4.530   5.267
14409SOL    HW247022   4.641   4.648   5.221
14410SOL     OW47023   4.715   4.134   4.966
14410SOL    HW147024   4.638   4.168   5.020
14410SOL    HW247025   4.681   4.083   4.887
14411SOL     OW47026   4.765   4.425   4.153
14411SOL    HW147027   4.791   4.421   4.249
14411SOL    HW247028   4.680   4.374   4.139
14412SOL     OW47029   3.800   4.535   4.513
14412SOL    HW147030   3.899   4.523   4.522
14412SOL    HW247031   3.776   4.630   4.534
14413SOL     OW47032   3.854   5.545   5.295
14413SOL    HW147033   3.844   5.530   5.394
14413SOL    HW247034   3.768   5.581   5.259
14414SOL     OW47035   4.589   4.072   3.919
14414SOL    HW147036   4.648   4.135   3.870
14414SOL    HW247037   4.608   3.978   3.890
14415SOL     OW47038   5.443   4.309   5.555
14415SOL    HW147039   5.417   4.398   5.519
14415SOL    HW247040   5.441   4.241   5.482
14416SOL     OW47041   5.086   4.868   4.269
14416SOL    HW147042   5.169   4.839   4.221
14416SOL    HW247043   5.037   4.935   4.213
14417SOL     OW47044   4.274   3.920   4.609
14417SOL    HW147045   4.269   3.915   4.709
14417SOL    HW247046   4.276   4.016   4.580
14418SOL     OW47047   4.732   5.180   4.201
14418SOL    HW147048   4.686   5.252   4.149
14418SOL    HW247049   4.728   5.200   4.299
14419SOL     OW47050   4.075   5.525   4.577
14419SOL    HW147051   4.125   5.439   4.583
14419SOL    HW247052   4.140   5.602   4.574
14420SOL     OW47053   5.519   4.790   4.597
14420SOL    HW147054   5.457   4.775   4.521
14420SOL    HW247055   5.467   4.801   4.682
14421SOL     OW47056   4.951   5.274   5.230
14421SOL    HW147057   4.957   5.197   5.294
14421SOL    HW247058   4.899   5.248   5.150
14422SOL     OW47059   4.045   4.667   3.966
14422SOL    HW147060   4.127   4.706   3.924
14422SOL    HW247061   4.018   4.585   3.917
14423SOL     OW47062   5.182   4.459   4.452
14423SOL    HW147063   5.177   4.394   4.527
14423SOL    HW247064   5.262   4.518   4.465
14424SOL     OW47065   4.185   4.990   5.451
14424SOL    HW147066   4.135   4.991   5.365
14424SOL    HW247067   4.122   4.972   5.527
14425SOL     OW47068   4.835   5.500   3.961
14425SOL    HW147069   4.775   5.438   4.011
14425SOL    HW247070   4.866   5.456   3.876
14426SOL     OW47071   3.926   4.009   5.222
14426SOL    HW147072   3.846   4.069   5.209
14426SOL    HW247073   3.916   3.960   5.308
14427SOL     OW47074   5.356   5.101   3.805
14427SOL    HW147075   5.324   5.195   3.795
14427SOL    HW247076   5.280   5.038   3.793
14428SOL     OW47077   4.188   5.467   4.047
14428SOL    HW147078   4.221   5.506   4.133
14428SOL    HW247079   4.264   5.460   3.982
14429SOL     OW47080   5.124   3.831   4.150
14429SOL    HW147081   5.100   3.794   4.060
14429SOL    HW247082   5.223   3.847   4.154
14430SOL     OW47083   3.973   5.509   4.965
14430SOL    HW147084   4.030   5.444   5.015
14430SOL    HW247085   3.957   5.476   4.872
14431SOL     OW47086   4.664   5.422   4.628
14431SOL    HW147087   4.744   5.365   4.649
14431SOL    HW247088   4.615   5.382   4.551
14432SOL     OW47089   4.106   4.424   4.204
14432SOL    HW147090   4.151   4.334   4.201
14432SOL    HW247091   4.012   4.413   4.237
14433SOL     OW47092   5.271   3.946   5.453
14433SOL    HW147093   5.266   3.983   5.545
14433SOL    HW247094   5.199   3.877   5.441
14434SOL     OW47095   4.338   3.846   3.841
14434SOL    HW147096   4.436   3.824   3.848
14434SOL    HW247097   4.307   3.829   3.748
14435SOL     OW47098   4.505   3.988   5.473
14435SOL    HW147099   4.572   3.927   5.516
14435SOL    HW247100   4.432   4.007   5.538
14436SOL     OW47101   4.612   5.238   4.919
14436SOL    HW147102   4.589   5.213   4.825
14436SOL    HW247103   4.673   5.169   4.958
14437SOL     OW47104   5.075   4.314   5.157
14437SOL    HW147105   5.103   4.271   5.242
14437SOL    HW247106   5.100   4.410   5.158
14438SOL     OW47107   4.527   5.126   4.648
14438SOL    HW147108   4.617   5.140   4.606
14438SOL    HW247109   4.456   5.128   4.577
14439SOL     OW47110   4.646   4.227   4.623
14439SOL    HW147111   4.621   4.218   4.527
14439SOL    HW247112   4.694   4.145   4.654
14440SOL     OW47113   4.263   3.788   4.236
14440SOL    HW147114   4.182   3.789   4.294
14440SOL    HW247115   4.266   3.871   4.181
14441SOL     OW47116   5.158   4.912   3.765
14441SOL    HW147117   5.190   4.836   3.822
14441SOL    HW247118   5.066   4.939   3.795
14442SOL     OW47119   4.021   3.759   3.895
14442SOL    HW147120   4.070   3.843   3.874
14442SOL    HW247121   4.083   3.694   3.940
14443SOL     OW47122   4.659   3.960   4.204
14443SOL    HW147123   4.611   4.001   4.126
14443SOL    HW247124   4.758   3.958   4.185
14444SOL     OW47125   4.800   4.407   5.188
14444SOL    HW147126   4.720   4.346   5.191
14444SOL    HW247127   4.881   4.354   5.164
14445SOL     OW47128   4.951   5.294   4.517
14445SOL    HW147129   4.972   5.368   4.452
14445SOL    HW247130   5.019   5.294   4.590
14446SOL     OW47131   4.183   4.876   4.465
14446SOL    HW147132   4.112   4.849   4.530
14446SOL    HW247133   4.157   4.848   4.372
14447SOL     OW47134   4.995   5.521   4.315
14447SOL    HW147135   5.039   5.585   4.251
14447SOL    HW247136   4.945   5.573   4.385
14448SOL     OW47137   4.756   4.273   3.740
14448SOL    HW147138   4.715   4.355   3.701
14448SOL    HW247139   4.820   4.299   3.813
14449SOL     OW47140   3.802   4.280   5.110
14449SOL    HW147141   3.894   4.279   5.069
14449SOL    HW247142   3.796   4.354   5.177
14450SOL     OW47143   4.285   3.946   4.871
14450SOL    HW147144   4.323   3.862   4.908
14450SOL    HW247145   4.197   3.965   4.915
14451SOL     OW47146   4.590   4.178   4.366
14451SOL    HW147147   4.558   4.250   4.304
14451SOL    HW247148   4.614   4.097   4.313
14452SOL     OW47149   4.741   3.763   4.477
14452SOL    HW147150   4.669   3.768   4.408
14452SOL    HW247151   4.717   3.694   4.546
14453SOL     OW47152   5.153   4.897   4.591
14453SOL    HW147153   5.098   4.813   4.584
14453SOL    HW247154   5.179   4.926   4.499
14454SOL     OW47155   5.190   4.314   4.716
14454SOL    HW147156   5.160   4.219   4.723
14454SOL    HW247157   5.263   4.330   4.782
14455SOL     OW47158   5.581   4.557   4.101
14455SOL    HW147159   5.623   4.493   4.165
14455SOL    HW247160   5.543   4.506   4.023
14456SOL     OW47161   4.212   5.109   3.898
14456SOL    HW147162   4.125   5.094   3.945
14456SOL    HW247163   4.195   5.135   3.803
14457SOL     OW47164   5.388   5.004   4.381
14457SOL    HW147165   5.487   5.012   4.395
14457SOL    HW247166   5.343   5.088   4.412
14458SOL     OW47167   5.114   4.299   3.802
14458SOL    HW147168   5.060   4.278   3.883
14458SOL    HW247169   5.205   4.258   3.811
14459SOL     OW47170   4.251   3.980   4.052
14459SOL    HW147171   4.278   3.921   3.977
14459SOL    HW247172   4.251   4.075   4.021
14460SOL     OW47173   5.478   4.947   5.312
14460SOL    HW147174   5.569   4.908   5.299
14460SOL    HW247175   5.486   5.043   5.336
14461SOL     OW47176   4.788   5.071   5.064
14461SOL    HW147177   4.708   5.048   5.119
14461SOL    HW247178   4.871   5.045   5.113
14462SOL     OW47179   5.316   5.353   5.349
14462SOL    HW147180   5.343   5.387   5.259
14462SOL    HW247181   5.395   5.315   5.395
14463SOL     OW47182   4.835   4.919   4.824
14463SOL    HW147183   4.795   4.963   4.905
14463SOL    HW247184   4.794   4.956   4.741
14464SOL     OW47185   5.362   4.823   4.803
14464SOL    HW147186   5.367   4.904   4.862
14464SOL    HW247187   5.276   4.825   4.752
14465SOL     OW47188   4.639   3.813   5.126
14465SOL    HW147189   4.664   3.793   5.031
14465SOL    HW247190   4.711   3.869   5.168
14466SOL     OW47191   4.704   4.840   5.443
14466SOL    HW147192   4.605   4.846   5.453
14466SOL    HW247193   4.727   4.760   5.387
14467SOL     OW47194   4.429   4.774   4.092
14467SOL    HW147195   4.415   4.781   4.191
14467SOL    HW247196   4.513   4.723   4.074
14468SOL     OW47197   4.134   4.537   4.975
14468SOL    HW147198   4.220   4.549   5.025
14468SOL    HW247199   4.092   4.450   5.002
14469SOL     OW47200   4.998   4.110   4.986
14469SOL    HW147201   5.019   4.184   5.050
14469SOL    HW247202   4.909   4.127   4.943
14470SOL     OW47203   3.788   5.288   5.055
14470SOL    HW147204   3.742   5.370   5.021
14470SOL    HW247205   3.886   5.307   5.064
14471SOL     OW47206   4.091   4.824   4.225
14471SOL    HW147207   4.084   4.907   4.169
14471SOL    HW247208   4.095   4.744   4.165
14472SOL     OW47209   4.290   4.261   4.589
14472SOL    HW147210   4.302   4.327   4.515
14472SOL    HW247211   4.336   4.295   4.672
14473SOL     OW47212   4.976   5.072   4.112
14473SOL    HW147213   5.026   5.149   4.152
14473SOL    HW247214   4.881   5.074   4.144
14474SOL     OW47215   4.996   5.169   4.866
14474SOL    HW147216   5.043   5.182   4.953
14474SOL    HW247217   4.930   5.095   4.875
14475SOL     OW47218   5.306   4.363   4.196
14475SOL    HW147219   5.275   4.424   4.269
14475SOL    HW247220   5.356   4.415   4.127
14476SOL     OW47221   4.078   5.234   5.053
14476SOL    HW147222   4.057   5.190   4.966
14476SOL    HW247223   4.175   5.260   5.056
14477SOL     OW47224   4.126   4.475   5.322
14477SOL    HW147225   4.194   4.530   5.275
14477SOL    HW247226   4.166   4.387   5.349
14478SOL     OW47227   5.311   4.503   5.394
14478SOL    HW147228   5.219   4.541   5.389
14478SOL    HW247229   5.371   4.550   5.329
14479SOL     OW47230   4.737   3.829   5.494
14479SOL    HW147231   4.743   3.914   5.442
14479SOL    HW247232   4.769   3.753   5.437
14480SOL     OW47233   4.228   3.774   5.464
14480SOL    HW147234   4.186   3.717   5.394
14480SOL    HW247235   4.162   3.843   5.496
14481SOL     OW47236   4.297   4.594   4.753
14481SOL    HW147237   4.341   4.683   4.744
14481SOL    HW247238   4.234   4.594   4.830
14482SOL     OW47239   5.084   4.586   4.769
14482SOL    HW147240   5.009   4.586   4.703
14482SOL    HW247241   5.121   4.494   4.778
14483SOL     OW47242   4.933   4.249   3.999
14483SOL    HW147243   4.946   4.165   4.053
14483SOL    HW247244   4.904   4.323   4.059
14484SOL     OW47245   4.031   3.937   4.955
14484SOL    HW147246   4.008   3.974   5.045
14484SOL    HW247247   4.001   3.842   4.949
14485SOL     OW47248   3.761   5.034   5.006
14485SOL    HW147249   3.814   4.985   5.074
14485SOL    HW247250   3.783   5.132   5.011
14486SOL     OW47251   4.456   4.358   4.788
14486SOL    HW147252   4.515   4.332   4.712
14486SOL    HW247253   4.428   4.454   4.777
14487SOL     OW47254   5.452   4.659   5.578
14487SOL    HW147255   5.406   4.652   5.489
14487SOL    HW247256   5.390   4.703   5.644
14488SOL     OW47257   4.031   3.787   4.342
14488SOL    HW147258   4.020   3.881   4.375
14488SOL    HW247259   4.026   3.724   4.419
14489SOL     OW47260   5.346   4.091   4.098
14489SOL    HW147261   5.348   4.015   4.162
14489SOL    HW247262   5.298   4.168   4.138
14490SOL     OW47263   4.747   4.490   4.690
14490SOL    HW147264   4.762   4.511   4.786
14490SOL    HW247265   4.717   4.395   4.681
14491SOL     OW47266   4.704   5.297   5.424
14491SOL    HW147267   4.684   5.341   5.336
14491SOL    HW247268   4.743   5.206   5.408
14492SOL     OW47269   5.583   5.242   5.329
14492SOL    HW147270   5.597   5.269   5.234
14492SOL    HW247271   5.666   5.264   5.382
14493SOL     OW47272   4.074   4.622   5.528
14493SOL    HW147273   4.150   4.666   5.576
14493SOL    HW247274   4.109   4.575   5.446
14494SOL     OW47275   5.264   3.998   3.849
14494SOL    HW147276   5.203   3.923   3.872
14494SOL    HW247277   5.286   4.050   3.932
14495SOL     OW47278   5.027   4.562   3.766
14495SOL    HW147279   5.061   4.469   3.781
14495SOL    HW247280   5.045   4.589   3.671
14496SOL     OW47281   4.792   5.057   4.573
14496SOL    HW147282   4.799   4.973   4.518
14496SOL    HW247283   4.854   5.126   4.537
14497SOL     OW47284   4.043   4.534   4.673
14497SOL    HW147285   4.136   4.570   4.678
14497SOL    HW247286   4.037   4.449   4.725
14498SOL     OW47287   4.063   4.233   4.730
14498SOL    HW147288   4.011   4.150   4.713
14498SOL    HW247289   4.140   4.238   4.666
14499SOL     OW47290   4.862   4.104   5.402
14499SOL    HW147291   4.817   4.167   5.466
14499SOL    HW247292   4.955   4.135   5.385
14500SOL     OW47293   4.884   3.931   5.201
14500SOL    HW147294   4.884   3.995   5.278
14500SOL    HW247295   4.912   3.979   5.118
14501SOL     OW47296   3.732   5.050   3.924
14501SOL    HW147297   3.639   5.071   3.893
14501SOL    HW247298   3.742   4.951   3.937
14502SOL     OW47299   3.812   5.525   4.651
14502SOL    HW147300   3.770   5.439   4.624
14502SOL    HW247301   3.906   5.528   4.617
14503SOL     OW47302   4.228   5.292   4.634
14503SOL    HW147303   4.294   5.366   4.643
14503SOL    HW247304   4.272   5.213   4.592
14504SOL     OW47305   4.726   4.520   4.962
14504SOL    HW147306   4.767   4.488   5.048
14504SOL    HW247307   4.630   4.493   4.959
14505SOL     OW47308   3.764   4.268   4.838
14505SOL    HW147309   3.849   4.235   4.797
14505SOL    HW247310   3.777   4.283   4.936
14506SOL     OW47311   3.913   4.244   5.446
14506SOL    HW147312   3.972   4.204   5.376
14506SOL    HW247313   3.855   4.315   5.405
14507SOL     OW47314   5.093   4.674   5.384
14507SOL    HW147315   5.132   4.763   5.404
14507SOL    HW247316   5.103   4.654   5.287
14508SOL     OW47317   4.539   4.296   4.049
14508SOL    HW147318   4.546   4.207   4.003
14508SOL    HW247319   4.445   4.330   4.041
14509SOL     OW47320   5.381   4.328   4.930
14509SOL    HW147321   5.343   4.259   4.992
14509SOL    HW247322   5.463   4.292   4.886
14510SOL     OW47323   3.976   5.288   5.468
14510SOL    HW147324   3.946   5.345   5.544
14510SOL    HW247325   3.969   5.191   5.494
14511SOL     OW47326   4.395   4.188   4.993
14511SOL    HW147327   4.361   4.099   4.963
14511SOL    HW247328   4.421   4.242   4.913
14512SOL     OW47329   4.654   5.402   5.189
14512SOL    HW147330   4.630   5.384   5.094
14512SOL    HW247331   4.684   5.496   5.199
14513SOL     OW47332   4.197   4.224   3.915
14513SOL    HW147333   4.258   4.304   3.919
14513SOL    HW247334   4.102   4.255   3.922
14514SOL     OW47335   3.883   4.861   5.190
14514SOL    HW147336   3.905   4.800   5.266
14514SOL    HW247337   3.893   4.812   5.104
14515SOL     OW47338   5.071   4.783   4.958
14515SOL    HW147339   5.095   4.720   4.884
14515SOL    HW247340   4.981   4.823   4.940
14516SOL     OW47341   5.026   4.579   4.033
14516SOL    HW147342   4.940   4.548   4.075
14516SOL    HW247343   5.022   4.565   3.934
14517SOL     OW47344   5.483   5.471   4.878
14517SOL    HW147345   5.544   5.501   4.805
14517SOL    HW247346   5.445   5.382   4.856
14518SOL     OW47347   4.976   5.455   4.852
14518SOL    HW147348   5.060   5.460   4.798
14518SOL    HW247349   4.953   5.359   4.870
14519SOL     OW47350   3.807   4.982   4.746
14519SOL    HW147351   3.802   4.981   4.846
14519SOL    HW247352   3.724   4.941   4.708
14520SOL     OW47353   4.412   5.386   5.440
14520SOL    HW147354   4.356   5.467   5.449
14520SOL    HW247355   4.464   5.390   5.354
14521SOL     OW47356   5.450   3.859   4.247
14521SOL    HW147357   5.523   3.842   4.180
14521SOL    HW247358   5.419   3.772   4.285
14522SOL     OW47359   5.112   5.297   4.201
14522SOL    HW147360   5.179   5.309   4.127
14522SOL    HW247361   5.072   5.386   4.224
14523SOL     OW47362   3.854   5.518   5.575
14523SOL    HW147363   3.813   5.444   5.628
14523SOL    HW247364   3.918   5.569   5.633
14524SOL     OW47365   5.004   4.651   4.396
14524SOL    HW147366   5.064   4.570   4.398
14524SOL    HW247367   5.044   4.720   4.336
14525SOL     OW47368   4.554   4.997   5.146
14525SOL    HW147369   4.549   5.030   5.241
14525SOL    HW247370   4.468   5.016   5.100
14526SOL     OW47371   4.396   5.340   3.878
14526SOL    HW147372   4.405   5.350   3.779
14526SOL    HW247373   4.356   5.251   3.899
14527SOL     OW47374   5.374   5.444   5.118
14527SOL    HW147375   5.427   5.454   5.034
14527SOL    HW247376   5.347   5.534   5.152
14528SOL     OW47377   5.565   3.899   4.687
14528SOL    HW147378   5.604   3.814   4.651
14528SOL    HW247379   5.467   3.901   4.668
14529SOL     OW47380   3.987   4.050   4.444
14529SOL    HW147381   3.908   4.101   4.410
14529SOL    HW247382   3.978   4.035   4.542
14530SOL     OW47383   4.918   5.336   3.755
14530SOL    HW147384   4.924   5.243   3.792
14530SOL    HW247385   4.859   5.336   3.675
14531SOL     OW47386   4.546   4.726   5.096
14531SOL    HW147387   4.586   4.725   5.004
14531SOL    HW247388   4.556   4.818   5.136
14532SOL     OW47389   4.640   4.634   4.015
14532SOL    HW147390   4.703   4.672   3.947
14532SOL    HW247391   4.680   4.551   4.054
14533SOL     OW47392   5.228   5.331   3.768
14533SOL    HW147393   5.136   5.368   3.775
14533SOL    HW247394   5.266   5.351   3.678
14534SOL     OW47395   4.096   5.012   5.214
14534SOL    HW147396   4.083   5.105   5.180
14534SOL    HW247397   4.012   4.960   5.201
14535SOL     OW47398   5.338   5.016   5.013
14535SOL    HW147399   5.398   5.019   5.093
14535SOL    HW247400   5.263   5.080   5.026
14536SOL     OW47401   4.763   4.822   4.420
14536SOL    HW147402   4.693   4.775   4.474
14536SOL    HW247403   4.822   4.754   4.377
14537SOL     OW47404   4.738   3.960   4.695
14537SOL    HW147405   4.730   3.924   4.602
14537SOL    HW247406   4.736   3.884   4.760
14538SOL     OW47407   4.314   5.211   4.215
14538SOL    HW147408   4.356   5.153   4.145
14538SOL    HW247409   4.270   5.290   4.171
14539SOL     OW47410   5.433   4.109   5.105
14539SOL    HW147411   5.506   4.178   5.109
14539SOL    HW247412   5.461   4.034   5.046
14540SOL     OW47413   3.979   5.072   4.014
14540SOL    HW147414   3.883   5.073   3.987
14540SOL    HW247415   3.991   5.125   4.098
14541SOL     OW47416   3.829   4.737   5.450
14541SOL    HW147417   3.752   4.704   5.504
14541SOL    HW247418   3.914   4.707   5.492
14542SOL     OW47419   4.396   3.927   5.213
14542SOL    HW147420   4.486   3.911   5.173
14542SOL    HW247421   4.404   3.932   5.312
14543SOL     OW47422   3.799   4.069   3.757
14543SOL    HW147423   3.707   4.041   3.728
14543SOL    HW247424   3.830   4.146   3.701
14544SOL     OW47425   5.164   4.580   5.122
14544SOL    HW147426   5.107   4.632   5.059
14544SOL    HW247427   5.260   4.592   5.098
14545SOL     OW47428   3.796   3.890   4.042
14545SOL    HW147429   3.779   3.973   3.988
14545SOL    HW247430   3.886   3.853   4.020
14546SOL     OW47431   4.907   5.059   3.843
14546SOL    HW147432   4.808   5.048   3.845
14546SOL    HW247433   4.941   5.074   3.936
14547SOL     OW47434   4.337   4.566   5.155
14547SOL    HW147435   4.393   4.647   5.138
14547SOL    HW247436   4.396   4.486   5.158
14548SOL     OW47437   5.217   5.491   4.683
14548SOL    HW147438   5.250   5.555   4.614
14548SOL    HW247439   5.283   5.485   4.758
14549SOL     OW47440   4.440   4.289   5.432
14549SOL    HW147441   4.459   4.354   5.506
14549SOL    HW247442   4.500   4.209   5.441
14550SOL     OW47443   5.174   4.944   5.357
14550SOL    HW147444   5.165   4.934   5.456
14550SOL    HW247445   5.270   4.937   5.331
14551SOL     OW47446   4.114   5.465   5.284
14551SOL    HW147447   4.023   5.506   5.282
14551SOL    HW247448   4.107   5.371   5.316
14552SOL     OW47449   5.398   4.607   4.978
14552SOL    HW147450   5.371   4.518   4.941
14552SOL    HW247451   5.399   4.675   4.905
14553SOL     OW47452   4.949   4.049   4.173
14553SOL    HW147453   5.014   3.975   4.162
14553SOL    HW247454   4.969   4.099   4.257
14554SOL     OW47455   4.318   4.469   4.376
14554SOL    HW147456   4.368   4.554   4.357
14554SOL    HW247457   4.230   4.471   4.328
14555SOL     OW47458   5.501   4.066   5.366
14555SOL    HW147459   5.484   4.097   5.272
14555SOL    HW247460   5.417   4.029   5.404
14556SOL     OW47461   5.454   4.658   5.241
14556SOL    HW147462   5.492   4.749   5.256
14556SOL    HW247463   5.446   4.641   5.142
14557SOL     OW47464   4.583   5.098   3.740
14557SOL    HW147465   4.537   5.113   3.828
14557SOL    HW247466   4.627   5.183   3.710
14558SOL     OW47467   4.385   5.514   4.677
14558SOL    HW147468   4.339   5.602   4.664
14558SOL    HW247469   4.484   5.526   4.670
14559SOL     OW47470   4.583   4.680   4.585
14559SOL    HW147471   4.637   4.611   4.633
14559SOL    HW247472   4.551   4.749   4.651
14560SOL     OW47473   4.807   4.708   3.811
14560SOL    HW147474   4.784   4.761   3.729
14560SOL    HW247475   4.888   4.652   3.792
14561SOL     OW47476   5.585   5.293   4.575
14561SOL    HW147477   5.514   5.281   4.505
14561SOL    HW247478   5.586   5.214   4.635
14562SOL     OW47479   3.945   5.038   5.568
14562SOL    HW147480   3.880   4.965   5.547
14562SOL    HW247481   3.949   5.052   5.666
14563SOL     OW47482   3.803   4.964   4.377
14563SOL    HW147483   3.802   4.917   4.465
14563SOL    HW247484   3.885   4.936   4.326
14564SOL     OW47485   4.396   5.115   5.348
14564SOL    HW147486   4.318   5.065   5.386
14564SOL    HW247487   4.393   5.210   5.379
14565SOL     OW47488   5.548   3.916   4.951
14565SOL    HW147489   5.544   3.826   4.995
14565SOL    HW247490   5.551   3.905   4.852
14566SOL     OW47491   4.152   4.148   4.244
14566SOL    HW147492   4.182   4.076   4.182
14566SOL    HW247493   4.113   4.108   4.327
14567SOL     OW47494   5.429   5.211   4.828
14567SOL    HW147495   5.336   5.186   4.801
14567SOL    HW247496   5.455   5.161   4.910
14568SOL     OW47497   4.041   4.271   5.004
14568SOL    HW147498   4.079   4.212   5.076
14568SOL    HW247499   4.081   4.245   4.916
14569SOL     OW47500   4.536   5.310   4.411
14569SOL    HW147501   4.568   5.320   4.317
14569SOL    HW247502   4.457   5.248   4.413
14570SOL     OW47503   5.148   3.938   4.836
14570SOL    HW147504   5.200   3.873   4.891
14570SOL    HW247505   5.099   4.001   4.897
14571SOL     OW47506   4.725   3.758   4.878
14571SOL    HW147507   4.662   3.686   4.847
14571SOL    HW247508   4.818   3.722   4.878
14572SOL     OW47509   4.494   5.054   4.025
14572SOL    HW147510   4.448   4.967   4.042
14572SOL    HW247511   4.585   5.051   4.066
14573SOL     OW47512   4.342   5.291   5.008
14573SOL    HW147513   4.337   5.373   5.065
14573SOL    HW247514   4.431   5.288   4.963
14574SOL     OW47515   5.076   3.776   3.892
14574SOL    HW147516   5.111   3.735   3.808
14574SOL    HW247517   4.986   3.738   3.912
14575SOL     OW47518   5.024   4.177   4.415
14575SOL    HW147519   4.965   4.257   4.419
14575SOL    HW247520   5.039   4.142   4.508
14576SOL     OW47521   5.317   3.945   4.606
14576SOL    HW147522   5.233   3.944   4.660
14576SOL    HW247523   5.319   4.028   4.550
14577SOL     OW47524   3.763   4.801   4.024
14577SOL    HW147525   3.862   4.790   4.015
14577SOL    HW247526   3.723   4.715   4.056
14578SOL     OW47527   4.599   5.370   4.061
14578SOL    HW147528   4.522   5.335   4.007
14578SOL    HW247529   4.567   5.441   4.123
14579SOL     OW47530   3.954   4.352   5.699
14579SOL    HW147531   3.861   4.350   5.736
14579SOL    HW247532   3.955   4.313   5.607
14580SOL     OW47533   3.949   3.999   6.582
14580SOL    HW147534   3.984   3.982   6.674
14580SOL    HW247535   3.861   3.954   6.570
14581SOL     OW47536   3.743   4.092   6.233
14581SOL    HW147537   3.661   4.135   6.272
14581SOL    HW247538   3.715   4.019   6.170
14582SOL     OW47539   4.293   4.999   6.751
14582SOL    HW147540   4.200   4.992   6.714
14582SOL    HW247541   4.304   5.088   6.795
14583SOL     OW47542   5.279   5.235   6.289
14583SOL    HW147543   5.222   5.219   6.370
14583SOL    HW247544   5.220   5.245   6.209
14584SOL     OW47545   4.859   4.427   6.303
14584SOL    HW147546   4.916   4.505   6.278
14584SOL    HW247547   4.799   4.453   6.379
14585SOL     OW47548   5.479   4.331   5.817
14585SOL    HW147549   5.467   4.318   5.718
14585SOL    HW247550   5.449   4.250   5.866
14586SOL     OW47551   4.492   4.868   6.609
14586SOL    HW147552   4.414   4.885   6.669
14586SOL    HW247553   4.526   4.955   6.573
14587SOL     OW47554   4.574   4.522   7.409
14587SOL    HW147555   4.570   4.598   7.474
14587SOL    HW247556   4.596   4.558   7.318
14588SOL     OW47557   4.409   4.736   6.251
14588SOL    HW147558   4.478   4.720   6.321
14588SOL    HW247559   4.336   4.793   6.289
14589SOL     OW47560   4.410   4.885   7.389
14589SOL    HW147561   4.470   4.964   7.403
14589SOL    HW247562   4.324   4.916   7.348
14590SOL     OW47563   4.059   5.159   6.647
14590SOL    HW147564   3.981   5.128   6.594
14590SOL    HW247565   4.117   5.217   6.590
14591SOL     OW47566   5.184   5.229   6.925
14591SOL    HW147567   5.208   5.323   6.951
14591SOL    HW247568   5.168   5.175   7.007
14592SOL     OW47569   4.162   4.116   7.085
14592SOL    HW147570   4.244   4.060   7.094
14592SOL    HW247571   4.081   4.058   7.089
14593SOL     OW47572   5.327   4.171   6.323
14593SOL    HW147573   5.253   4.217   6.273
14593SOL    HW247574   5.378   4.239   6.376
14594SOL     OW47575   3.955   5.437   6.069
14594SOL    HW147576   3.989   5.514   6.123
14594SOL    HW247577   3.999   5.437   5.979
14595SOL     OW47578   4.851   5.065   7.276
14595SOL    HW147579   4.898   5.065   7.364
14595SOL    HW247580   4.803   4.978   7.265
14596SOL     OW47581   3.954   5.158   6.124
14596SOL    HW147582   3.928   5.254   6.124
14596SOL    HW247583   3.883   5.104   6.169
14597SOL     OW47584   3.964   4.815   6.472
14597SOL    HW147585   3.978   4.731   6.524
14597SOL    HW247586   3.909   4.879   6.527
14598SOL     OW47587   4.344   5.510   7.025
14598SOL    HW147588   4.252   5.493   7.060
14598SOL    HW247589   4.372   5.602   7.051
14599SOL     OW47590   4.330   4.688   5.709
14599SOL    HW147591   4.337   4.772   5.655
14599SOL    HW247592   4.376   4.701   5.797
14600SOL     OW47593   5.318   3.838   7.066
14600SOL    HW147594   5.300   3.905   6.994
14600SOL    HW247595   5.315   3.884   7.155
14601SOL     OW47596   3.846   4.367   6.149
14601SOL    HW147597   3.801   4.279   6.166
14601SOL    HW247598   3.845   4.421   6.233
14602SOL     OW47599   5.566   5.491   5.945
14602SOL    HW147600   5.620   5.462   6.025
14602SOL    HW247601   5.596   5.581   5.916
14603SOL     OW47602   3.751   5.320   5.703
14603SOL    HW147603   3.732   5.224   5.724
14603SOL    HW247604   3.718   5.378   5.778
14604SOL     OW47605   5.413   4.646   6.198
14604SOL    HW147606   5.508   4.617   6.206
14604SOL    HW247607   5.405   4.711   6.123
14605SOL     OW47608   5.365   4.832   6.018
14605SOL    HW147609   5.451   4.834   5.966
14605SOL    HW247610   5.379   4.879   6.106
14606SOL     OW47611   3.837   4.461   7.183
14606SOL    HW147612   3.925   4.448   7.228
14606SOL    HW247613   3.824   4.558   7.161
14607SOL     OW47614   4.337   5.089   6.312
14607SOL    HW147615   4.288   5.002   6.321
14607SOL    HW247616   4.314   5.132   6.225
14608SOL     OW47617   5.017   4.952   7.009
14608SOL    HW147618   5.054   4.879   6.951
14608SOL    HW247619   5.069   4.957   7.094
14609SOL     OW47620   4.533   3.728   6.088
14609SOL    HW147621   4.573   3.819   6.079
14609SOL    HW247622   4.433   3.736   6.094
14610SOL     OW47623   3.921   4.700   6.850
14610SOL    HW147624   4.010   4.655   6.836
14610SOL    HW247625   3.848   4.635   6.831
14611SOL     OW47626   5.249   4.723   5.776
14611SOL    HW147627   5.186   4.647   5.789
14611SOL    HW247628   5.297   4.741   5.862
14612SOL     OW47629   4.911   5.516   7.202
14612SOL    HW147630   4.935   5.576   7.126
14612SOL    HW247631   4.918   5.421   7.172
14613SOL     OW47632   4.041   3.975   7.387
14613SOL    HW147633   4.112   4.046   7.393
14613SOL    HW247634   3.953   4.014   7.415
14614SOL     OW47635   5.190   5.141   6.539
14614SOL    HW147636   5.131   5.147   6.619
14614SOL    HW247637   5.175   5.053   6.493
14615SOL     OW47638   5.391   5.438   6.158
14615SOL    HW147639   5.350   5.415   6.070
14615SOL    HW247640   5.373   5.364   6.223
14616SOL     OW47641   4.322   4.453   5.856
14616SOL    HW147642   4.346   4.522   5.788
14616SOL    HW247643   4.244   4.486   5.910
14617SOL     OW47644   5.005   4.069   6.530
14617SOL    HW147645   4.919   4.019   6.517
14617SOL    HW247646   5.067   4.015   6.586
14618SOL     OW47647   5.300   5.386   5.893
14618SOL    HW147648   5.389   5.432   5.896
14618SOL    HW247649   5.279   5.362   5.798
14619SOL     OW47650   4.531   4.329   7.051
14619SOL    HW147651   4.484   4.326   7.140
14619SOL    HW247652   4.480   4.274   6.985
14620SOL     OW47653   5.118   4.193   7.260
14620SOL    HW147654   5.098   4.236   7.348
14620SOL    HW247655   5.196   4.131   7.269
14621SOL     OW47656   4.697   4.614   7.158
14621SOL    HW147657   4.743   4.530   7.129
14621SOL    HW247658   4.641   4.648   7.083
14622SOL     OW47659   4.715   4.134   6.828
14622SOL    HW147660   4.638   4.168   6.882
14622SOL    HW247661   4.681   4.083   6.749
14623SOL     OW47662   4.765   4.425   6.015
14623SOL    HW147663   4.791   4.421   6.111
14623SOL    HW247664   4.680   4.374   6.001
14624SOL     OW47665   3.800   4.535   6.375
14624SOL    HW147666   3.899   4.523   6.384
14624SOL    HW247667   3.776   4.630   6.396
14625SOL     OW47668   3.854   5.545   7.157
14625SOL    HW147669   3.844   5.530   7.256
14625SOL    HW247670   3.768   5.581   7.121
14626SOL     OW47671   4.589   4.072   5.781
14626SOL    HW147672   4.648   4.135   5.732
14626SOL    HW247673   4.608   3.978   5.752
14627SOL     OW47674   5.443   4.309   7.417
14627SOL    HW147675   5.417   4.398   7.381
14627SOL    HW247676   5.441   4.241   7.344
14628SOL     OW47677   5.086   4.868   6.131
14628SOL    HW147678   5.169   4.839   6.083
14628SOL    HW247679   5.037   4.935   6.075
14629SOL     OW47680   4.274   3.920   6.471
14629SOL    HW147681   4.269   3.915   6.571
14629SOL    HW247682   4.276   4.016   6.442
14630SOL     OW47683   4.732   5.180   6.063
14630SOL    HW147684   4.686   5.252   6.011
14630SOL    HW247685   4.728   5.200   6.161
14631SOL     OW47686   4.075   5.525   6.439
14631SOL    HW147687   4.125   5.439   6.445
14631SOL    HW247688   4.140   5.602   6.436
14632SOL     OW47689   5.519   4.790   6.459
14632SOL    HW147690   5.457   4.775   6.383
14632SOL    HW247691   5.467   4.801   6.544
14633SOL     OW47692   4.951   5.274   7.092
14633SOL    HW147693   4.957   5.197   7.156
14633SOL    HW247694   4.899   5.248   7.012
14634SOL     OW47695   4.045   4.667   5.828
14634SOL    HW147696   4.127   4.706   5.786
14634SOL    HW247697   4.018   4.585   5.779
14635SOL     OW47698   5.182   4.459   6.314
14635SOL    HW147699   5.177   4.394   6.389
14635SOL    HW247700   5.262   4.518   6.327
14636SOL     OW47701   4.185   4.990   7.313
14636SOL    HW147702   4.135   4.991   7.227
14636SOL    HW247703   4.122   4.972   7.389
14637SOL     OW47704   4.835   5.500   5.823
14637SOL    HW147705   4.775   5.438   5.873
14637SOL    HW247706   4.866   5.456   5.738
14638SOL     OW47707   3.926   4.009   7.084
14638SOL    HW147708   3.846   4.069   7.071
14638SOL    HW247709   3.916   3.960   7.170
14639SOL     OW47710   5.356   5.101   5.667
14639SOL    HW147711   5.324   5.195   5.657
14639SOL    HW247712   5.280   5.038   5.655
14640SOL     OW47713   4.188   5.467   5.909
14640SOL    HW147714   4.221   5.506   5.995
14640SOL    HW247715   4.264   5.460   5.844
14641SOL     OW47716   5.124   3.831   6.012
14641SOL    HW147717   5.100   3.794   5.922
14641SOL    HW247718   5.223   3.847   6.016
14642SOL     OW47719   3.973   5.509   6.827
14642SOL    HW147720   4.030   5.444   6.877
14642SOL    HW247721   3.957   5.476   6.734
14643SOL     OW47722   4.664   5.422   6.490
14643SOL    HW147723   4.744   5.365   6.511
14643SOL    HW247724   4.615   5.382   6.413
14644SOL     OW47725   4.106   4.424   6.066
14644SOL    HW147726   4.151   4.334   6.063
14644SOL    HW247727   4.012   4.413   6.099
14645SOL     OW47728   5.271   3.946   7.315
14645SOL    HW147729   5.266   3.983   7.407
14645SOL    HW247730   5.199   3.877   7.303
14646SOL     OW47731   4.338   3.846   5.703
14646SOL    HW147732   4.436   3.824   5.710
14646SOL    HW247733   4.307   3.829   5.610
14647SOL     OW47734   4.505   3.988   7.335
14647SOL    HW147735   4.572   3.927   7.378
14647SOL    HW247736   4.432   4.007   7.400
14648SOL     OW47737   4.612   5.238   6.781
14648SOL    HW147738   4.589   5.213   6.687
14648SOL    HW247739   4.673   5.169   6.820
14649SOL     OW47740   5.075   4.314   7.019
14649SOL    HW147741   5.103   4.271   7.104
14649SOL    HW247742   5.100   4.410   7.020
14650SOL     OW47743   4.527   5.126   6.510
14650SOL    HW147744   4.617   5.140   6.468
14650SOL    HW247745   4.456   5.128   6.439
14651SOL     OW47746   4.646   4.227   6.485
14651SOL    HW147747   4.621   4.218   6.389
14651SOL    HW247748   4.694   4.145   6.516
14652SOL     OW47749   4.263   3.788   6.098
14652SOL    HW147750   4.182   3.789   6.156
14652SOL    HW247751   4.266   3.871   6.043
14653SOL     OW47752   5.158   4.912   5.627
14653SOL    HW147753   5.190   4.836   5.684
14653SOL    HW247754   5.066   4.939   5.657
14654SOL     OW47755   4.021   3.759   5.757
14654SOL    HW147756   4.070   3.843   5.736
14654SOL    HW247757   4.083   3.694   5.802
14655SOL     OW47758   4.659   3.960   6.066
14655SOL    HW147759   4.611   4.001   5.988
14655SOL    HW247760   4.758   3.958   6.047
14656SOL     OW47761   4.800   4.407   7.050
14656SOL    HW147762   4.720   4.346   7.053
14656SOL    HW247763   4.881   4.354   7.026
14657SOL     OW47764   4.951   5.294   6.379
14657SOL    HW147765   4.972   5.368   6.314
14657SOL    HW247766   5.019   5.294   6.452
14658SOL     OW47767   4.183   4.876   6.327
14658SOL    HW147768   4.112   4.849   6.392
14658SOL    HW247769   4.157   4.848   6.234
14659SOL     OW47770   4.995   5.521   6.177
14659SOL    HW147771   5.039   5.585   6.113
14659SOL    HW247772   4.945   5.573   6.247
14660SOL     OW47773   4.756   4.273   5.602
14660SOL    HW147774   4.715   4.355   5.563
14660SOL    HW247775   4.820   4.299   5.675
14661SOL     OW47776   3.802   4.280   6.972
14661SOL    HW147777   3.894   4.279   6.931
14661SOL    HW247778   3.796   4.354   7.039
14662SOL     OW47779   4.285   3.946   6.733
14662SOL    HW147780   4.323   3.862   6.770
14662SOL    HW247781   4.197   3.965   6.777
14663SOL     OW47782   4.590   4.178   6.228
14663SOL    HW147783   4.558   4.250   6.166
14663SOL    HW247784   4.614   4.097   6.175
14664SOL     OW47785   4.741   3.763   6.339
14664SOL    HW147786   4.669   3.768   6.270
14664SOL    HW247787   4.717   3.694   6.408
14665SOL     OW47788   5.153   4.897   6.453
14665SOL    HW147789   5.098   4.813   6.446
14665SOL    HW247790   5.179   4.926   6.361
14666SOL     OW47791   5.190   4.314   6.578
14666SOL    HW147792   5.160   4.219   6.585
14666SOL    HW247793   5.263   4.330   6.644
14667SOL     OW47794   5.581   4.557   5.963
14667SOL    HW147795   5.623   4.493   6.027
14667SOL    HW247796   5.543   4.506   5.885
14668SOL     OW47797   4.212   5.109   5.760
14668SOL    HW147798   4.125   5.094   5.807
14668SOL    HW247799   4.195   5.135   5.665
14669SOL     OW47800   5.388   5.004   6.243
14669SOL    HW147801   5.487   5.012   6.257
14669SOL    HW247802   5.343   5.088   6.274
14670SOL     OW47803   5.114   4.299   5.664
14670SOL    HW147804   5.060   4.278   5.745
14670SOL    HW247805   5.205   4.258   5.673
14671SOL     OW47806   4.251   3.980   5.914
14671SOL    HW147807   4.278   3.921   5.839
14671SOL    HW247808   4.251   4.075   5.883
14672SOL     OW47809   5.478   4.947   7.174
14672SOL    HW147810   5.569   4.908   7.161
14672SOL    HW247811   5.486   5.043   7.198
14673SOL     OW47812   4.788   5.071   6.926
14673SOL    HW147813   4.708   5.048   6.981
14673SOL    HW247814   4.871   5.045   6.975
14674SOL     OW47815   5.316   5.353   7.211
14674SOL    HW147816   5.343   5.387   7.121
14674SOL    HW247817   5.395   5.315   7.257
14675SOL     OW47818   4.835   4.919   6.686
14675SOL    HW147819   4.795   4.963   6.767
14675SOL    HW247820   4.794   4.956   6.603
14676SOL     OW47821   5.362   4.823   6.665
14676SOL    HW147822   5.367   4.904   6.724
14676SOL    HW247823   5.276   4.825   6.614
14677SOL     OW47824   4.639   3.813   6.988
14677SOL    HW147825   4.664   3.793   6.893
14677SOL    HW247826   4.711   3.869   7.030
14678SOL     OW47827   4.704   4.840   7.305
14678SOL    HW147828   4.605   4.846   7.315
14678SOL    HW247829   4.727   4.760   7.249
14679SOL     OW47830   4.429   4.774   5.954
14679SOL    HW147831   4.415   4.781   6.053
14679SOL    HW247832   4.513   4.723   5.936
14680SOL     OW47833   4.134   4.537   6.837
14680SOL    HW147834   4.220   4.549   6.887
14680SOL    HW247835   4.092   4.450   6.864
14681SOL     OW47836   4.998   4.110   6.848
14681SOL    HW147837   5.019   4.184   6.912
14681SOL    HW247838   4.909   4.127   6.805
14682SOL     OW47839   3.788   5.288   6.917
14682SOL    HW147840   3.742   5.370   6.883
14682SOL    HW247841   3.886   5.307   6.926
14683SOL     OW47842   4.091   4.824   6.087
14683SOL    HW147843   4.084   4.907   6.031
14683SOL    HW247844   4.095   4.744   6.027
14684SOL     OW47845   4.290   4.261   6.451
14684SOL    HW147846   4.302   4.327   6.377
14684SOL    HW247847   4.336   4.295   6.534
14685SOL     OW47848   4.976   5.072   5.974
14685SOL    HW147849   5.026   5.149   6.014
14685SOL    HW247850   4.881   5.074   6.006
14686SOL     OW47851   4.996   5.169   6.728
14686SOL    HW147852   5.043   5.182   6.815
14686SOL    HW247853   4.930   5.095   6.737
14687SOL     OW47854   5.306   4.363   6.058
14687SOL    HW147855   5.275   4.424   6.131
14687SOL    HW247856   5.356   4.415   5.989
14688SOL     OW47857   4.078   5.234   6.915
14688SOL    HW147858   4.057   5.190   6.828
14688SOL    HW247859   4.175   5.260   6.918
14689SOL     OW47860   4.126   4.475   7.184
14689SOL    HW147861   4.194   4.530   7.137
14689SOL    HW247862   4.166   4.387   7.211
14690SOL     OW47863   5.311   4.503   7.256
14690SOL    HW147864   5.219   4.541   7.251
14690SOL    HW247865   5.371   4.550   7.191
14691SOL     OW47866   4.737   3.829   7.356
14691SOL    HW147867   4.743   3.914   7.304
14691SOL    HW247868   4.769   3.753   7.299
14692SOL     OW47869   4.228   3.774   7.326
14692SOL    HW147870   4.186   3.717   7.256
14692SOL    HW247871   4.162   3.843   7.358
14693SOL     OW47872   4.297   4.594   6.615
14693SOL    HW147873   4.341   4.683   6.606
14693SOL    HW247874   4.234   4.594   6.692
14694SOL     OW47875   5.084   4.586   6.631
14694SOL    HW147876   5.009   4.586   6.565
14694SOL    HW247877   5.121   4.494   6.640
14695SOL     OW47878   4.933   4.249   5.861
14695SOL    HW147879   4.946   4.165   5.915
14695SOL    HW247880   4.904   4.323   5.921
14696SOL     OW47881   4.031   3.937   6.817
14696SOL    HW147882   4.008   3.974   6.907
14696SOL    HW247883   4.001   3.842   6.811
14697SOL     OW47884   3.761   5.034   6.868
14697SOL    HW147885   3.814   4.985   6.936
14697SOL    HW247886   3.783   5.132   6.873
14698SOL     OW47887   4.456   4.358   6.650
14698SOL    HW147888   4.515   4.332   6.574
14698SOL    HW247889   4.428   4.454   6.639
14699SOL     OW47890   5.452   4.659   7.440
14699SOL    HW147891   5.406   4.652   7.351
14699SOL    HW247892   5.390   4.703   7.506
14700SOL     OW47893   4.031   3.787   6.204
14700SOL    HW147894   4.020   3.881   6.237
14700SOL    HW247895   4.026   3.724   6.281
14701SOL     OW47896   5.346   4.091   5.960
14701SOL    HW147897   5.348   4.015   6.024
14701SOL    HW247898   5.298   4.168   6.000
14702SOL     OW47899   4.747   4.490   6.552
14702SOL    HW147900   4.762   4.511   6.648
14702SOL    HW247901   4.717   4.395   6.543
14703SOL     OW47902   4.704   5.297   7.286
14703SOL    HW147903   4.684   5.341   7.198
14703SOL    HW247904   4.743   5.206   7.270
14704SOL     OW47905   5.583   5.242   7.191
14704SOL    HW147906   5.597   5.269   7.096
14704SOL    HW247907   5.666   5.264   7.244
14705SOL     OW47908   4.074   4.622   7.390
14705SOL    HW147909   4.150   4.666   7.438
14705SOL    HW247910   4.109   4.575   7.308
14706SOL     OW47911   5.264   3.998   5.711
14706SOL    HW147912   5.203   3.923   5.734
14706SOL    HW247913   5.286   4.050   5.794
14707SOL     OW47914   5.027   4.562   5.628
14707SOL    HW147915   5.061   4.469   5.643
14707SOL    HW247916   5.045   4.589   5.533
14708SOL     OW47917   4.792   5.057   6.435
14708SOL    HW147918   4.799   4.973   6.380
14708SOL    HW247919   4.854   5.126   6.399
14709SOL     OW47920   4.043   4.534   6.535
14709SOL    HW147921   4.136   4.570   6.540
14709SOL    HW247922   4.037   4.449   6.587
14710SOL     OW47923   4.063   4.233   6.592
14710SOL    HW147924   4.011   4.150   6.575
14710SOL    HW247925   4.140   4.238   6.528
14711SOL     OW47926   4.862   4.104   7.264
14711SOL    HW147927   4.817   4.167   7.328
14711SOL    HW247928   4.955   4.135   7.247
14712SOL     OW47929   4.884   3.931   7.063
14712SOL    HW147930   4.884   3.995   7.140
14712SOL    HW247931   4.912   3.979   6.980
14713SOL     OW47932   3.732   5.050   5.786
14713SOL    HW147933   3.639   5.071   5.755
14713SOL    HW247934   3.742   4.951   5.799
14714SOL     OW47935   3.812   5.525   6.513
14714SOL    HW147936   3.770   5.439   6.486
14714SOL    HW247937   3.906   5.528   6.479
14715SOL     OW47938   4.228   5.292   6.496
14715SOL    HW147939   4.294   5.366   6.505
14715SOL    HW247940   4.272   5.213   6.454
14716SOL     OW47941   4.726   4.520   6.824
14716SOL    HW147942   4.767   4.488   6.910
14716SOL    HW247943   4.630   4.493   6.821
14717SOL     OW47944   3.764   4.268   6.700
14717SOL    HW147945   3.849   4.235   6.659
14717SOL    HW247946   3.777   4.283   6.798
14718SOL     OW47947   3.913   4.244   7.308
14718SOL    HW147948   3.972   4.204   7.238
14718SOL    HW247949   3.855   4.315   7.267
14719SOL     OW47950   5.093   4.674   7.246
14719SOL    HW147951   5.132   4.763   7.266
14719SOL    HW247952   5.103   4.654   7.149
14720SOL     OW47953   4.539   4.296   5.911
14720SOL    HW147954   4.546   4.207   5.865
14720SOL    HW247955   4.445   4.330   5.903
14721SOL     OW47956   5.381   4.328   6.792
14721SOL    HW147957   5.343   4.259   6.854
14721SOL    HW247958   5.463   4.292   6.748
14722SOL     OW47959   3.976   5.288   7.330
14722SOL    HW147960   3.946   5.345   7.406
14722SOL    HW247961   3.969   5.191   7.356
14723SOL     OW47962   4.395   4.188   6.855
14723SOL    HW147963   4.361   4.099   6.825
14723SOL    HW247964   4.421   4.242   6.775
14724SOL     OW47965   4.654   5.402   7.051
14724SOL    HW147966   4.630   5.384   6.956
14724SOL    HW247967   4.684   5.496   7.061
14725SOL     OW47968   4.197   4.224   5.777
14725SOL    HW147969   4.258   4.304   5.781
14725SOL    HW247970   4.102   4.255   5.784
14726SOL     OW47971   3.883   4.861   7.052
14726SOL    HW147972   3.905   4.800   7.128
14726SOL    HW247973   3.893   4.812   6.966
14727SOL     OW47974   5.071   4.783   6.820
14727SOL    HW147975   5.095   4.720   6.746
14727SOL    HW247976   4.981   4.823   6.802
14728SOL     OW47977   5.026   4.579   5.895
14728SOL    HW147978   4.940   4.548   5.937
14728SOL    HW247979   5.022   4.565   5.796
14729SOL     OW47980   5.483   5.471   6.740
14729SOL    HW147981   5.544   5.501   6.667
14729SOL    HW247982   5.445   5.382   6.718
14730SOL     OW47983   4.976   5.455   6.714
14730SOL    HW147984   5.060   5.460   6.660
14730SOL    HW247985   4.953   5.359   6.732
14731SOL     OW47986   3.807   4.982   6.608
14731SOL    HW147987   3.802   4.981   6.708
14731SOL    HW247988   3.724   4.941   6.570
14732SOL     OW47989   4.412   5.386   7.302
14732SOL    HW147990   4.356   5.467   7.311
14732SOL    HW247991   4.464   5.390   7.216
14733SOL     OW47992   5.450   3.859   6.109
14733SOL    HW147993   5.523   3.842   6.042
14733SOL    HW247994   5.419   3.772   6.147
14734SOL     OW47995   5.112   5.297   6.063
14734SOL    HW147996   5.179   5.309   5.989
14734SOL    HW247997   5.072   5.386   6.086
14735SOL     OW47998   3.854   5.518   7.437
14735SOL    HW147999   3.813   5.444   7.490
14735SOL    HW248000   3.918   5.569   7.495
14736SOL     OW48001   5.004   4.651   6.258
14736SOL    HW148002   5.064   4.570   6.260
14736SOL    HW248003   5.044   4.720   6.198
14737SOL     OW48004   4.554   4.997   7.008
14737SOL    HW148005   4.549   5.030   7.103
14737SOL    HW248006   4.468   5.016   6.962
14738SOL     OW48007   4.396   5.340   5.740
14738SOL    HW148008   4.405   5.350   5.641
14738SOL    HW248009   4.356   5.251   5.761
14739SOL     OW48010   5.374   5.444   6.980
14739SOL    HW148011   5.427   5.454   6.896
14739SOL    HW248012   5.347   5.534   7.014
14740SOL     OW48013   5.565   3.899   6.549
14740SOL    HW148014   5.604   3.814   6.513
14740SOL    HW248015   5.467   3.901   6.530
14741SOL     OW48016   3.987   4.050   6.306
14741SOL    HW148017   3.908   4.101   6.272
14741SOL    HW248018   3.978   4.035   6.404
14742SOL     OW48019   4.918   5.336   5.617
14742SOL    HW148020   4.924   5.243   5.654
14742SOL    HW248021   4.859   5.336   5.537
14743SOL     OW48022   4.546   4.726   6.958
14743SOL    HW148023   4.586   4.725   6.866
14743SOL    HW248024   4.556   4.818   6.998
14744SOL     OW48025   4.640   4.634   5.877
14744SOL    HW148026   4.703   4.672   5.809
14744SOL    HW248027   4.680   4.551   5.916
14745SOL     OW48028   5.228   5.331   5.630
14745SOL    HW148029   5.136   5.368   5.637
14745SOL    HW248030   5.266   5.351   5.540
14746SOL     OW48031   4.096   5.012   7.076
14746SOL    HW148032   4.083   5.105   7.042
14746SOL    HW248033   4.012   4.960   7.063
14747SOL     OW48034   5.338   5.016   6.875
14747SOL    HW148035   5.398   5.019   6.955
14747SOL    HW248036   5.263   5.080   6.888
14748SOL     OW48037   4.763   4.822   6.282
14748SOL    HW148038   4.693   4.775   6.336
14748SOL    HW248039   4.822   4.754   6.239
14749SOL     OW48040   4.738   3.960   6.557
14749SOL    HW148041   4.730   3.924   6.464
14749SOL    HW248042   4.736   3.884   6.622
14750SOL     OW48043   4.314   5.211   6.077
14750SOL    HW148044   4.356   5.153   6.007
14750SOL    HW248045   4.270   5.290   6.033
14751SOL     OW48046   5.433   4.109   6.967
14751SOL    HW148047   5.506   4.178   6.971
14751SOL    HW248048   5.461   4.034   6.908
14752SOL     OW48049   3.979   5.072   5.876
14752SOL    HW148050   3.883   5.073   5.849
14752SOL    HW248051   3.991   5.125   5.960
14753SOL     OW48052   3.829   4.737   7.312
14753SOL    HW148053   3.752   4.704   7.366
14753SOL    HW248054   3.914   4.707   7.354
14754SOL     OW48055   4.396   3.927   7.075
14754SOL    HW148056   4.486   3.911   7.035
14754SOL    HW248057   4.404   3.932   7.174
14755SOL     OW48058   3.799   4.069   5.619
14755SOL    HW148059   3.707   4.041   5.590
14755SOL    HW248060   3.830   4.146   5.563
14756SOL     OW48061   5.164   4.580   6.984
14756SOL    HW148062   5.107   4.632   6.921
14756SOL    HW248063   5.260   4.592   6.960
14757SOL     OW48064   3.796   3.890   5.904
14757SOL    HW148065   3.779   3.973   5.850
14757SOL    HW248066   3.886   3.853   5.882
14758SOL     OW48067   4.907   5.059   5.705
14758SOL    HW148068   4.808   5.048   5.707
14758SOL    HW248069   4.941   5.074   5.798
14759SOL     OW48070   4.337   4.566   7.017
14759SOL    HW148071   4.393   4.647   7.000
14759SOL    HW248072   4.396   4.486   7.020
14760SOL     OW48073   5.217   5.491   6.545
14760SOL    HW148074   5.250   5.555   6.476
14760SOL    HW248075   5.283   5.485   6.620
14761SOL     OW48076   4.440   4.289   7.294
14761SOL    HW148077   4.459   4.354   7.368
14761SOL    HW248078   4.500   4.209   7.303
14762SOL     OW48079   5.174   4.944   7.219
14762SOL    HW148080   5.165   4.934   7.318
14762SOL    HW248081   5.270   4.937   7.193
14763SOL     OW48082   4.114   5.465   7.146
14763SOL    HW148083   4.023   5.506   7.144
14763SOL    HW248084   4.107   5.371   7.178
14764SOL     OW48085   5.398   4.607   6.840
14764SOL    HW148086   5.371   4.518   6.803
14764SOL    HW248087   5.399   4.675   6.767
14765SOL     OW48088   4.949   4.049   6.035
14765SOL    HW148089   5.014   3.975   6.024
14765SOL    HW248090   4.969   4.099   6.119
14766SOL     OW48091   4.318   4.469   6.238
14766SOL    HW148092   4.368   4.554   6.219
14766SOL    HW248093   4.230   4.471   6.190
14767SOL     OW48094   5.501   4.066   7.228
14767SOL    HW148095   5.484   4.097   7.134
14767SOL    HW248096   5.417   4.029   7.266
14768SOL     OW48097   5.454   4.658   7.103
14768SOL    HW148098   5.492   4.749   7.118
14768SOL    HW248099   5.446   4.641   7.004
14769SOL     OW48100   4.583   5.098   5.602
14769SOL    HW148101   4.537   5.113   5.690
14769SOL    HW248102   4.627   5.183   5.572
14770SOL     OW48103   4.385   5.514   6.539
14770SOL    HW148104   4.339   5.602   6.526
14770SOL    HW248105   4.484   5.526   6.532
14771SOL     OW48106   4.583   4.680   6.447
14771SOL    HW148107   4.637   4.611   6.495
14771SOL    HW248108   4.551   4.749   6.513
14772SOL     OW48109   4.807   4.708   5.673
14772SOL    HW148110   4.784   4.761   5.591
14772SOL    HW248111   4.888   4.652   5.654
14773SOL     OW48112   5.585   5.293   6.437
14773SOL    HW148113   5.514   5.281   6.367
14773SOL    HW248114   5.586   5.214   6.497
14774SOL     OW48115   3.945   5.038   7.430
14774SOL    HW148116   3.880   4.965   7.409
14774SOL    HW248117   3.949   5.052   7.528
14775SOL     OW48118   3.803   4.964   6.239
14775SOL    HW148119   3.802   4.917   6.327
14775SOL    HW248120   3.885   4.936   6.188
14776SOL     OW48121   4.396   5.115   7.210
14776SOL    HW148122   4.318   5.065   7.248
14776SOL    HW248123   4.393   5.210   7.241
14777SOL     OW48124   5.548   3.916   6.813
14777SOL    HW148125   5.544   3.826   6.857
14777SOL    HW248126   5.551   3.905   6.714
14778SOL     OW48127   4.152   4.148   6.106
14778SOL    HW148128   4.182   4.076   6.044
14778SOL    HW248129   4.113   4.108   6.189
14779SOL     OW48130   5.429   5.211   6.690
14779SOL    HW148131   5.336   5.186   6.663
14779SOL    HW248132   5.455   5.161   6.772
14780SOL     OW48133   4.041   4.271   6.866
14780SOL    HW148134   4.079   4.212   6.938
14780SOL    HW248135   4.081   4.245   6.778
14781SOL     OW48136   4.536   5.310   6.273
14781SOL    HW148137   4.568   5.320   6.179
14781SOL    HW248138   4.457   5.248   6.275
14782SOL     OW48139   5.148   3.938   6.698
14782SOL    HW148140   5.200   3.873   6.753
14782SOL    HW248141   5.099   4.001   6.759
14783SOL     OW48142   4.725   3.758   6.740
14783SOL    HW148143   4.662   3.686   6.709
14783SOL    HW248144   4.818   3.722   6.740
14784SOL     OW48145   4.494   5.054   5.887
14784SOL    HW148146   4.448   4.967   5.904
14784SOL    HW248147   4.585   5.051   5.928
14785SOL     OW48148   4.342   5.291   6.870
14785SOL    HW148149   4.337   5.373   6.927
14785SOL    HW248150   4.431   5.288   6.825
14786SOL     OW48151   5.076   3.776   5.754
14786SOL    HW148152   5.111   3.735   5.670
14786SOL    HW248153   4.986   3.738   5.774
14787SOL     OW48154   5.024   4.177   6.277
14787SOL    HW148155   4.965   4.257   6.281
14787SOL    HW248156   5.039   4.142   6.370
14788SOL     OW48157   5.317   3.945   6.468
14788SOL    HW148158   5.233   3.944   6.522
14788SOL    HW248159   5.319   4.028   6.412
14789SOL     OW48160   3.763   4.801   5.886
14789SOL    HW148161   3.862   4.790   5.877
14789SOL    HW248162   3.723   4.715   5.918
14790SOL     OW48163   4.599   5.370   5.923
14790SOL    HW148164   4.522   5.335   5.869
14790SOL    HW248165   4.567   5.441   5.985
14791SOL     OW48166   3.954   4.352   7.561
14791SOL    HW148167   3.861   4.350   7.598
14791SOL    HW248168   3.955   4.313   7.469
14792SOL     OW48169   3.949   3.999   8.444
14792SOL    HW148170   3.984   3.982   8.536
14792SOL    HW248171   3.861   3.954   8.432
14793SOL     OW48172   3.743   4.092   8.095
14793SOL    HW148173   3.661   4.135   8.134
14793SOL    HW248174   3.715   4.019   8.032
14794SOL     OW48175   4.293   4.999   8.613
14794SOL    HW148176   4.200   4.992   8.576
14794SOL    HW248177   4.304   5.088   8.657
14795SOL     OW48178   5.279   5.235   8.151
14795SOL    HW148179   5.222   5.219   8.232
14795SOL    HW248180   5.220   5.245   8.071
14796SOL     OW48181   4.859   4.427   8.165
14796SOL    HW148182   4.916   4.505   8.140
14796SOL    HW248183   4.799   4.453   8.241
14797SOL     OW48184   5.479   4.331   7.679
14797SOL    HW148185   5.467   4.318   7.580
14797SOL    HW248186   5.449   4.250   7.728
14798SOL     OW48187   4.492   4.868   8.471
14798SOL    HW148188   4.414   4.885   8.531
14798SOL    HW248189   4.526   4.955   8.435
14799SOL     OW48190   4.574   4.522   9.271
14799SOL    HW148191   4.570   4.598   9.336
14799SOL    HW248192   4.596   4.558   9.180
14800SOL     OW48193   4.409   4.736   8.113
14800SOL    HW148194   4.478   4.720   8.183
14800SOL    HW248195   4.336   4.793   8.151
14801SOL     OW48196   4.410   4.885   9.251
14801SOL    HW148197   4.470   4.964   9.265
14801SOL    HW248198   4.324   4.916   9.210
14802SOL     OW48199   4.059   5.159   8.509
14802SOL    HW148200   3.981   5.128   8.456
14802SOL    HW248201   4.117   5.217   8.452
14803SOL     OW48202   5.184   5.229   8.787
14803SOL    HW148203   5.208   5.323   8.813
14803SOL    HW248204   5.168   5.175   8.869
14804SOL     OW48205   4.162   4.116   8.947
14804SOL    HW148206   4.244   4.060   8.956
14804SOL    HW248207   4.081   4.058   8.951
14805SOL     OW48208   5.327   4.171   8.185
14805SOL    HW148209   5.253   4.217   8.135
14805SOL    HW248210   5.378   4.239   8.238
14806SOL     OW48211   3.955   5.437   7.931
14806SOL    HW148212   3.989   5.514   7.985
14806SOL    HW248213   3.999   5.437   7.841
14807SOL     OW48214   4.851   5.065   9.138
14807SOL    HW148215   4.898   5.065   9.226
14807SOL    HW248216   4.803   4.978   9.127
14808SOL     OW48217   3.954   5.158   7.986
14808SOL    HW148218   3.928   5.254   7.986
14808SOL    HW248219   3.883   5.104   8.031
14809SOL     OW48220   3.964   4.815   8.334
14809SOL    HW148221   3.978   4.731   8.386
14809SOL    HW248222   3.909   4.879   8.389
14810SOL     OW48223   4.344   5.510   8.887
14810SOL    HW148224   4.252   5.493   8.922
14810SOL    HW248225   4.372   5.602   8.913
14811SOL     OW48226   4.330   4.688   7.571
14811SOL    HW148227   4.337   4.772   7.517
14811SOL    HW248228   4.376   4.701   7.659
14812SOL     OW48229   5.318   3.838   8.928
14812SOL    HW148230   5.300   3.905   8.856
14812SOL    HW248231   5.315   3.884   9.017
14813SOL     OW48232   3.846   4.367   8.011
14813SOL    HW148233   3.801   4.279   8.028
14813SOL    HW248234   3.845   4.421   8.095
14814SOL     OW48235   5.566   5.491   7.807
14814SOL    HW148236   5.620   5.462   7.887
14814SOL    HW248237   5.596   5.581   7.778
14815SOL     OW48238   3.751   5.320   7.565
14815SOL    HW148239   3.732   5.224   7.586
14815SOL    HW248240   3.718   5.378   7.640
14816SOL     OW48241   5.413   4.646   8.060
14816SOL    HW148242   5.508   4.617   8.068
14816SOL    HW248243   5.405   4.711   7.985
14817SOL     OW48244   5.365   4.832   7.880
14817SOL    HW148245   5.451   4.834   7.828
14817SOL    HW248246   5.379   4.879   7.968
14818SOL     OW48247   3.837   4.461   9.045
14818SOL    HW148248   3.925   4.448   9.090
14818SOL    HW248249   3.824   4.558   9.023
14819SOL     OW48250   4.337   5.089   8.174
14819SOL    HW148251   4.288   5.002   8.183
14819SOL    HW248252   4.314   5.132   8.087
14820SOL     OW48253   5.017   4.952   8.871
14820SOL    HW148254   5.054   4.879   8.813
14820SOL    HW248255   5.069   4.957   8.956
14821SOL     OW48256   4.533   3.728   7.950
14821SOL    HW148257   4.573   3.819   7.941
14821SOL    HW248258   4.433   3.736   7.956
14822SOL     OW48259   3.921   4.700   8.712
14822SOL    HW148260   4.010   4.655   8.698
14822SOL    HW248261   3.848   4.635   8.693
14823SOL     OW48262   5.249   4.723   7.638
14823SOL    HW148263   5.186   4.647   7.651
14823SOL    HW248264   5.297   4.741   7.724
14824SOL     OW48265   4.911   5.516   9.064
14824SOL    HW148266   4.935   5.576   8.988
14824SOL    HW248267   4.918   5.421   9.034
14825SOL     OW48268   4.041   3.975   9.249
14825SOL    HW148269   4.112   4.046   9.255
14825SOL    HW248270   3.953   4.014   9.277
14826SOL     OW48271   5.190   5.141   8.401
14826SOL    HW148272   5.131   5.147   8.481
14826SOL    HW248273   5.175   5.053   8.355
14827SOL     OW48274   5.391   5.438   8.020
14827SOL    HW148275   5.350   5.415   7.932
14827SOL    HW248276   5.373   5.364   8.085
14828SOL     OW48277   4.322   4.453   7.718
14828SOL    HW148278   4.346   4.522   7.650
14828SOL    HW248279   4.244   4.486   7.772
14829SOL     OW48280   5.005   4.069   8.392
14829SOL    HW148281   4.919   4.019   8.379
14829SOL    HW248282   5.067   4.015   8.448
14830SOL     OW48283   5.300   5.386   7.755
14830SOL    HW148284   5.389   5.432   7.758
14830SOL    HW248285   5.279   5.362   7.660
14831SOL     OW48286   4.531   4.329   8.913
14831SOL    HW148287   4.484   4.326   9.002
14831SOL    HW248288   4.480   4.274   8.847
14832SOL     OW48289   5.118   4.193   9.122
14832SOL    HW148290   5.098   4.236   9.210
14832SOL    HW248291   5.196   4.131   9.131
14833SOL     OW48292   4.697   4.614   9.020
14833SOL    HW148293   4.743   4.530   8.991
14833SOL    HW248294   4.641   4.648   8.945
14834SOL     OW48295   4.715   4.134   8.690
14834SOL    HW148296   4.638   4.168   8.744
14834SOL    HW248297   4.681   4.083   8.611
14835SOL     OW48298   4.765   4.425   7.877
14835SOL    HW148299   4.791   4.421   7.973
14835SOL    HW248300   4.680   4.374   7.863
14836SOL     OW48301   3.800   4.535   8.237
14836SOL    HW148302   3.899   4.523   8.246
14836SOL    HW248303   3.776   4.630   8.258
14837SOL     OW48304   3.854   5.545   9.019
14837SOL    HW148305   3.844   5.530   9.118
14837SOL    HW248306   3.768   5.581   8.983
14838SOL     OW48307   4.589   4.072   7.643
14838SOL    HW148308   4.648   4.135   7.594
14838SOL    HW248309   4.608   3.978   7.614
14839SOL     OW48310   5.443   4.309   9.279
14839SOL    HW148311   5.417   4.398   9.243
14839SOL    HW248312   5.441   4.241   9.206
14840SOL     OW48313   5.086   4.868   7.993
14840SOL    HW148314   5.169   4.839   7.945
14840SOL    HW248315   5.037   4.935   7.937
14841SOL     OW48316   4.274   3.920   8.333
14841SOL    HW148317   4.269   3.915   8.433
14841SOL    HW248318   4.276   4.016   8.304
14842SOL     OW48319   4.732   5.180   7.925
14842SOL    HW148320   4.686   5.252   7.873
14842SOL    HW248321   4.728   5.200   8.023
14843SOL     OW48322   4.075   5.525   8.301
14843SOL    HW148323   4.125   5.439   8.307
14843SOL    HW248324   4.140   5.602   8.298
14844SOL     OW48325   5.519   4.790   8.321
14844SOL    HW148326   5.457   4.775   8.245
14844SOL    HW248327   5.467   4.801   8.406
14845SOL     OW48328   4.951   5.274   8.954
14845SOL    HW148329   4.957   5.197   9.018
14845SOL    HW248330   4.899   5.248   8.874
14846SOL     OW48331   4.045   4.667   7.690
14846SOL    HW148332   4.127   4.706   7.648
14846SOL    HW248333   4.018   4.585   7.641
14847SOL     OW48334   5.182   4.459   8.176
14847SOL    HW148335   5.177   4.394   8.251
14847SOL    HW248336   5.262   4.518   8.189
14848SOL     OW48337   4.185   4.990   9.175
14848SOL    HW148338   4.135   4.991   9.089
14848SOL    HW248339   4.122   4.972   9.251
14849SOL     OW48340   4.835   5.500   7.685
14849SOL    HW148341   4.775   5.438   7.735
14849SOL    HW248342   4.866   5.456   7.600
14850SOL     OW48343   3.926   4.009   8.946
14850SOL    HW148344   3.846   4.069   8.933
14850SOL    HW248345   3.916   3.960   9.032
14851SOL     OW48346   5.356   5.101   7.529
14851SOL    HW148347   5.324   5.195   7.519
14851SOL    HW248348   5.280   5.038   7.517
14852SOL     OW48349   4.188   5.467   7.771
14852SOL    HW148350   4.221   5.506   7.857
14852SOL    HW248351   4.264   5.460   7.706
14853SOL     OW48352   5.124   3.831   7.874
14853SOL    HW148353   5.100   3.794   7.784
14853SOL    HW248354   5.223   3.847   7.878
14854SOL     OW48355   3.973   5.509   8.689
14854SOL    HW148356   4.030   5.444   8.739
14854SOL    HW248357   3.957   5.476   8.596
14855SOL     OW48358   4.664   5.422   8.352
14855SOL    HW148359   4.744   5.365   8.373
14855SOL    HW248360   4.615   5.382   8.275
14856SOL     OW48361   4.106   4.424   7.928
14856SOL    HW148362   4.151   4.334   7.925
14856SOL    HW248363   4.012   4.413   7.961
14857SOL     OW48364   5.271   3.946   9.177
14857SOL    HW148365   5.266   3.983   9.269
14857SOL    HW248366   5.199   3.877   9.165
14858SOL     OW48367   4.338   3.846   7.565
14858SOL    HW148368   4.436   3.824   7.572
14858SOL    HW248369   4.307   3.829   7.472
14859SOL     OW48370   4.505   3.988   9.197
14859SOL    HW148371   4.572   3.927   9.240
14859SOL    HW248372   4.432   4.007   9.262
14860SOL     OW48373   4.612   5.238   8.643
14860SOL    HW148374   4.589   5.213   8.549
14860SOL    HW248375   4.673   5.169   8.682
14861SOL     OW48376   5.075   4.314   8.881
14861SOL    HW148377   5.103   4.271   8.966
14861SOL    HW248378   5.100   4.410   8.882
14862SOL     OW48379   4.527   5.126   8.372
14862SOL    HW148380   4.617   5.140   8.330
14862SOL    HW248381   4.456   5.128   8.301
14863SOL     OW48382   4.646   4.227   8.347
14863SOL    HW148383   4.621   4.218   8.251
14863SOL    HW248384   4.694   4.145   8.378
14864SOL     OW48385   4.263   3.788   7.960
14864SOL    HW148386   4.182   3.789   8.018
14864SOL    HW248387   4.266   3.871   7.905
14865SOL     OW48388   5.158   4.912   7.489
14865SOL    HW148389   5.190   4.836   7.546
14865SOL    HW248390   5.066   4.939   7.519
14866SOL     OW48391   4.021   3.759   7.619
14866SOL    HW148392   4.070   3.843   7.598
14866SOL    HW248393   4.083   3.694   7.664
14867SOL     OW48394   4.659   3.960   7.928
14867SOL    HW148395   4.611   4.001   7.850
14867SOL    HW248396   4.758   3.958   7.909
14868SOL     OW48397   4.800   4.407   8.912
14868SOL    HW148398   4.720   4.346   8.915
14868SOL    HW248399   4.881   4.354   8.888
14869SOL     OW48400   4.951   5.294   8.241
14869SOL    HW148401   4.972   5.368   8.176
14869SOL    HW248402   5.019   5.294   8.314
14870SOL     OW48403   4.183   4.876   8.189
14870SOL    HW148404   4.112   4.849   8.254
14870SOL    HW248405   4.157   4.848   8.096
14871SOL     OW48406   4.995   5.521   8.039
14871SOL    HW148407   5.039   5.585   7.975
14871SOL    HW248408   4.945   5.573   8.109
14872SOL     OW48409   4.756   4.273   7.464
14872SOL    HW148410   4.715   4.355   7.425
14872SOL    HW248411   4.820   4.299   7.537
14873SOL     OW48412   3.802   4.280   8.834
14873SOL    HW148413   3.894   4.279   8.793
14873SOL    HW248414   3.796   4.354   8.901
14874SOL     OW48415   4.285   3.946   8.595
14874SOL    HW148416   4.323   3.862   8.632
14874SOL    HW248417   4.197   3.965   8.639
14875SOL     OW48418   4.590   4.178   8.090
14875SOL    HW148419   4.558   4.250   8.028
14875SOL    HW248420   4.614   4.097   8.037
14876SOL     OW48421   4.741   3.763   8.201
14876SOL    HW148422   4.669   3.768   8.132
14876SOL    HW248423   4.717   3.694   8.270
14877SOL     OW48424   5.153   4.897   8.315
14877SOL    HW148425   5.098   4.813   8.308
14877SOL    HW248426   5.179   4.926   8.223
14878SOL     OW48427   5.190   4.314   8.440
14878SOL    HW148428   5.160   4.219   8.447
14878SOL    HW248429   5.263   4.330   8.506
14879SOL     OW48430   5.581   4.557   7.825
14879SOL    HW148431   5.623   4.493   7.889
14879SOL    HW248432   5.543   4.506   7.747
14880SOL     OW48433   4.212   5.109   7.622
14880SOL    HW148434   4.125   5.094   7.669
14880SOL    HW248435   4.195   5.135   7.527
14881SOL     OW48436   5.388   5.004   8.105
14881SOL    HW148437   5.487   5.012   8.119
14881SOL    HW248438   5.343   5.088   8.136
14882SOL     OW48439   5.114   4.299   7.526
14882SOL    HW148440   5.060   4.278   7.607
14882SOL    HW248441   5.205   4.258   7.535
14883SOL     OW48442   4.251   3.980   7.776
14883SOL    HW148443   4.278   3.921   7.701
14883SOL    HW248444   4.251   4.075   7.745
14884SOL     OW48445   5.478   4.947   9.036
14884SOL    HW148446   5.569   4.908   9.023
14884SOL    HW248447   5.486   5.043   9.060
14885SOL     OW48448   4.788   5.071   8.788
14885SOL    HW148449   4.708   5.048   8.843
14885SOL    HW248450   4.871   5.045   8.837
14886SOL     OW48451   5.316   5.353   9.073
14886SOL    HW148452   5.343   5.387   8.983
14886SOL    HW248453   5.395   5.315   9.119
14887SOL     OW48454   4.835   4.919   8.548
14887SOL    HW148455   4.795   4.963   8.629
14887SOL    HW248456   4.794   4.956   8.465
14888SOL     OW48457   5.362   4.823   8.527
14888SOL    HW148458   5.367   4.904   8.586
14888SOL    HW248459   5.276   4.825   8.476
14889SOL     OW48460   4.639   3.813   8.850
14889SOL    HW148461   4.664   3.793   8.755
14889SOL    HW248462   4.711   3.869   8.892
14890SOL     OW48463   4.704   4.840   9.167
14890SOL    HW148464   4.605   4.846   9.177
14890SOL    HW248465   4.727   4.760   9.111
14891SOL     OW48466   4.429   4.774   7.816
14891SOL    HW148467   4.415   4.781   7.915
14891SOL    HW248468   4.513   4.723   7.798
14892SOL     OW48469   4.134   4.537   8.699
14892SOL    HW148470   4.220   4.549   8.749
14892SOL    HW248471   4.092   4.450   8.726
14893SOL     OW48472   4.998   4.110   8.710
14893SOL    HW148473   5.019   4.184   8.774
14893SOL    HW248474   4.909   4.127   8.667
14894SOL     OW48475   3.788   5.288   8.779
14894SOL    HW148476   3.742   5.370   8.745
14894SOL    HW248477   3.886   5.307   8.788
14895SOL     OW48478   4.091   4.824   7.949
14895SOL    HW148479   4.084   4.907   7.893
14895SOL    HW248480   4.095   4.744   7.889
14896SOL     OW48481   4.290   4.261   8.313
14896SOL    HW148482   4.302   4.327   8.239
14896SOL    HW248483   4.336   4.295   8.396
14897SOL     OW48484   4.976   5.072   7.836
14897SOL    HW148485   5.026   5.149   7.876
14897SOL    HW248486   4.881   5.074   7.868
14898SOL     OW48487   4.996   5.169   8.590
14898SOL    HW148488   5.043   5.182   8.677
14898SOL    HW248489   4.930   5.095   8.599
14899SOL     OW48490   5.306   4.363   7.920
14899SOL    HW148491   5.275   4.424   7.993
14899SOL    HW248492   5.356   4.415   7.851
14900SOL     OW48493   4.078   5.234   8.777
14900SOL    HW148494   4.057   5.190   8.690
14900SOL    HW248495   4.175   5.260   8.780
14901SOL     OW48496   4.126   4.475   9.046
14901SOL    HW148497   4.194   4.530   8.999
14901SOL    HW248498   4.166   4.387   9.073
14902SOL     OW48499   5.311   4.503   9.118
14902SOL    HW148500   5.219   4.541   9.113
14902SOL    HW248501   5.371   4.550   9.053
14903SOL     OW48502   4.228   3.774   9.188
14903SOL    HW148503   4.186   3.717   9.118
14903SOL    HW248504   4.162   3.843   9.220
14904SOL     OW48505   4.297   4.594   8.477
14904SOL    HW148506   4.341   4.683   8.468
14904SOL    HW248507   4.234   4.594   8.554
14905SOL     OW48508   5.084   4.586   8.493
14905SOL    HW148509   5.009   4.586   8.427
14905SOL    HW248510   5.121   4.494   8.502
14906SOL     OW48511   4.933   4.249   7.723
14906SOL    HW148512   4.946   4.165   7.777
14906SOL    HW248513   4.904   4.323   7.783
14907SOL     OW48514   4.031   3.937   8.679
14907SOL    HW148515   4.008   3.974   8.769
14907SOL    HW248516   4.001   3.842   8.673
14908SOL     OW48517   3.761   5.034   8.730
14908SOL    HW148518   3.814   4.985   8.798
14908SOL    HW248519   3.783   5.132   8.735
14909SOL     OW48520   4.456   4.358   8.512
14909SOL    HW148521   4.515   4.332   8.436
14909SOL    HW248522   4.428   4.454   8.501
14910SOL     OW48523   5.452   4.659   9.302
14910SOL    HW148524   5.406   4.652   9.213
14910SOL    HW248525   5.390   4.703   9.368
14911SOL     OW48526   4.031   3.787   8.066
14911SOL    HW148527   4.020   3.881   8.099
14911SOL    HW248528   4.026   3.724   8.143
14912SOL     OW48529   5.346   4.091   7.822
14912SOL    HW148530   5.348   4.015   7.886
14912SOL    HW248531   5.298   4.168   7.862
14913SOL     OW48532   4.747   4.490   8.414
14913SOL    HW148533   4.762   4.511   8.510
14913SOL    HW248534   4.717   4.395   8.405
14914SOL     OW48535   4.704   5.297   9.148
14914SOL    HW148536   4.684   5.341   9.060
14914SOL    HW248537   4.743   5.206   9.132
14915SOL     OW48538   5.583   5.242   9.053
14915SOL    HW148539   5.597   5.269   8.958
14915SOL    HW248540   5.666   5.264   9.106
14916SOL     OW48541   4.074   4.622   9.252
14916SOL    HW148542   4.150   4.666   9.300
14916SOL    HW248543   4.109   4.575   9.170
14917SOL     OW48544   5.264   3.998   7.573
14917SOL    HW148545   5.203   3.923   7.596
14917SOL    HW248546   5.286   4.050   7.656
14918SOL     OW48547   5.027   4.562   7.490
14918SOL    HW148548   5.061   4.469   7.505
14918SOL    HW248549   5.045   4.589   7.395
14919SOL     OW48550   4.792   5.057   8.297
14919SOL    HW148551   4.799   4.973   8.242
14919SOL    HW248552   4.854   5.126   8.261
14920SOL     OW48553   4.043   4.534   8.397
14920SOL    HW148554   4.136   4.570   8.402
14920SOL    HW248555   4.037   4.449   8.449
14921SOL     OW48556   4.063   4.233   8.454
14921SOL    HW148557   4.011   4.150   8.437
14921SOL    HW248558   4.140   4.238   8.390
14922SOL     OW48559   4.862   4.104   9.126
14922SOL    HW148560   4.817   4.167   9.190
14922SOL    HW248561   4.955   4.135   9.109
14923SOL     OW48562   4.884   3.931   8.925
14923SOL    HW148563   4.884   3.995   9.002
14923SOL    HW248564   4.912   3.979   8.842
14924SOL     OW48565   3.732   5.050   7.648
14924SOL    HW148566   3.639   5.071   7.617
14924SOL    HW248567   3.742   4.951   7.661
14925SOL     OW48568   3.812   5.525   8.375
14925SOL    HW148569   3.770   5.439   8.348
14925SOL    HW248570   3.906   5.528   8.341
14926SOL     OW48571   4.228   5.292   8.358
14926SOL    HW148572   4.294   5.366   8.367
14926SOL    HW248573   4.272   5.213   8.316
14927SOL     OW48574   4.726   4.520   8.686
14927SOL    HW148575   4.767   4.488   8.772
14927SOL    HW248576   4.630   4.493   8.683
14928SOL     OW48577   3.764   4.268   8.562
14928SOL    HW148578   3.849   4.235   8.521
14928SOL    HW248579   3.777   4.283   8.660
14929SOL     OW48580   3.913   4.244   9.170
14929SOL    HW148581   3.972   4.204   9.100
14929SOL    HW248582   3.855   4.315   9.129
14930SOL     OW48583   5.093   4.674   9.108
14930SOL    HW148584   5.132   4.763   9.128
14930SOL    HW248585   5.103   4.654   9.011
14931SOL     OW48586   4.539   4.296   7.773
14931SOL    HW148587   4.546   4.207   7.727
14931SOL    HW248588   4.445   4.330   7.765
14932SOL     OW48589   5.381   4.328   8.654
14932SOL    HW148590   5.343   4.259   8.716
14932SOL    HW248591   5.463   4.292   8.610
14933SOL     OW48592   3.976   5.288   9.192
14933SOL    HW148593   3.946   5.345   9.268
14933SOL    HW248594   3.969   5.191   9.218
14934SOL     OW48595   4.395   4.188   8.717
14934SOL    HW148596   4.361   4.099   8.687
14934SOL    HW248597   4.421   4.242   8.637
14935SOL     OW48598   4.654   5.402   8.913
14935SOL    HW148599   4.630   5.384   8.818
14935SOL    HW248600   4.684   5.496   8.923
14936SOL     OW48601   4.197   4.224   7.639
14936SOL    HW148602   4.258   4.304   7.643
14936SOL    HW248603   4.102   4.255   7.646
14937SOL     OW48604   3.883   4.861   8.914
14937SOL    HW148605   3.905   4.800   8.990
14937SOL    HW248606   3.893   4.812   8.828
14938SOL     OW48607   5.071   4.783   8.682
14938SOL    HW148608   5.095   4.720   8.608
14938SOL    HW248609   4.981   4.823   8.664
14939SOL     OW48610   5.026   4.579   7.757
14939SOL    HW148611   4.940   4.548   7.799
14939SOL    HW248612   5.022   4.565   7.658
14940SOL     OW48613   5.483   5.471   8.602
14940SOL    HW148614   5.544   5.501   8.529
14940SOL    HW248615   5.445   5.382   8.580
14941SOL     OW48616   4.976   5.455   8.576
14941SOL    HW148617   5.060   5.460   8.522
14941SOL    HW248618   4.953   5.359   8.594
14942SOL     OW48619   3.807   4.982   8.470
14942SOL    HW148620   3.802   4.981   8.570
14942SOL    HW248621   3.724   4.941   8.432
14943SOL     OW48622   4.412   5.386   9.164
14943SOL    HW148623   4.356   5.467   9.173
14943SOL    HW248624   4.464   5.390   9.078
14944SOL     OW48625   5.450   3.859   7.971
14944SOL    HW148626   5.523   3.842   7.904
14944SOL    HW248627   5.419   3.772   8.009
14945SOL     OW48628   5.112   5.297   7.925
14945SOL    HW148629   5.179   5.309   7.851
14945SOL    HW248630   5.072   5.386   7.948
14946SOL     OW48631   3.854   5.518   9.299
14946SOL    HW148632   3.813   5.444   9.352
14946SOL    HW248633   3.918   5.569   9.357
14947SOL     OW48634   5.004   4.651   8.120
14947SOL    HW148635   5.064   4.570   8.122
14947SOL    HW248636   5.044   4.720   8.060
14948SOL     OW48637   4.554   4.997   8.870
14948SOL    HW148638   4.549   5.030   8.965
14948SOL    HW248639   4.468   5.016   8.824
14949SOL     OW48640   4.396   5.340   7.602
14949SOL    HW148641   4.405   5.350   7.503
14949SOL    HW248642   4.356   5.251   7.623
14950SOL     OW48643   5.374   5.444   8.842
14950SOL    HW148644   5.427   5.454   8.758
14950SOL    HW248645   5.347   5.534   8.876
14951SOL     OW48646   5.565   3.899   8.411
14951SOL    HW148647   5.604   3.814   8.375
14951SOL    HW248648   5.467   3.901   8.392
14952SOL     OW48649   3.987   4.050   8.168
14952SOL    HW148650   3.908   4.101   8.134
14952SOL    HW248651   3.978   4.035   8.266
14953SOL     OW48652   4.918   5.336   7.479
14953SOL    HW148653   4.924   5.243   7.516
14953SOL    HW248654   4.859   5.336   7.399
14954SOL     OW48655   4.546   4.726   8.820
14954SOL    HW148656   4.586   4.725   8.728
14954SOL    HW248657   4.556   4.818   8.860
14955SOL     OW48658   4.640   4.634   7.739
14955SOL    HW148659   4.703   4.672   7.671
14955SOL    HW248660   4.680   4.551   7.778
14956SOL     OW48661   5.228   5.331   7.492
14956SOL    HW148662   5.136   5.368   7.499
14956SOL    HW248663   5.266   5.351   7.402
14957SOL     OW48664   4.096   5.012   8.938
14957SOL    HW148665   4.083   5.105   8.904
14957SOL    HW248666   4.012   4.960   8.925
14958SOL     OW48667   5.338   5.016   8.737
14958SOL    HW148668   5.398   5.019   8.817
14958SOL    HW248669   5.263   5.080   8.750
14959SOL     OW48670   4.763   4.822   8.144
14959SOL    HW148671   4.693   4.775   8.198
14959SOL    HW248672   4.822   4.754   8.101
14960SOL     OW48673   4.738   3.960   8.419
14960SOL    HW148674   4.730   3.924   8.326
14960SOL    HW248675   4.736   3.884   8.484
14961SOL     OW48676   4.314   5.211   7.939
14961SOL    HW148677   4.356   5.153   7.869
14961SOL    HW248678   4.270   5.290   7.895
14962SOL     OW48679   5.433   4.109   8.829
14962SOL    HW148680   5.506   4.178   8.833
14962SOL    HW248681   5.461   4.034   8.770
14963SOL     OW48682   3.979   5.072   7.738
14963SOL    HW148683   3.883   5.073   7.711
14963SOL    HW248684   3.991   5.125   7.822
14964SOL     OW48685   3.829   4.737   9.174
14964SOL    HW148686   3.752   4.704   9.228
14964SOL    HW248687   3.914   4.707   9.216
14965SOL     OW48688   4.396   3.927   8.937
14965SOL    HW148689   4.486   3.911   8.897
14965SOL    HW248690   4.404   3.932   9.036
14966SOL     OW48691   3.799   4.069   7.481
14966SOL    HW148692   3.707   4.041   7.452
14966SOL    HW248693   3.830   4.146   7.425
14967SOL     OW48694   5.164   4.580   8.846
14967SOL    HW148695   5.107   4.632   8.783
14967SOL    HW248696   5.260   4.592   8.822
14968SOL     OW48697   3.796   3.890   7.766
14968SOL    HW148698   3.779   3.973   7.712
14968SOL    HW248699   3.886   3.853   7.744
14969SOL     OW48700   4.907   5.059   7.567
14969SOL    HW148701   4.808   5.048   7.569
14969SOL    HW248702   4.941   5.074   7.660
14970SOL     OW48703   4.337   4.566   8.879
14970SOL    HW148704   4.393   4.647   8.862
14970SOL    HW248705   4.396   4.486   8.882
14971SOL     OW48706   5.217   5.491   8.407
14971SOL    HW148707   5.250   5.555   8.338
14971SOL    HW248708   5.283   5.485   8.482
14972SOL     OW48709   4.440   4.289   9.156
14972SOL    HW148710   4.459   4.354   9.230
14972SOL    HW248711   4.500   4.209   9.165
14973SOL     OW48712   5.174   4.944   9.081
14973SOL    HW148713   5.165   4.934   9.180
14973SOL    HW248714   5.270   4.937   9.055
14974SOL     OW48715   4.114   5.465   9.008
14974SOL    HW148716   4.023   5.506   9.006
14974SOL    HW248717   4.107   5.371   9.040
14975SOL     OW48718   5.398   4.607   8.702
14975SOL    HW148719   5.371   4.518   8.665
14975SOL    HW248720   5.399   4.675   8.629
14976SOL     OW48721   4.949   4.049   7.897
14976SOL    HW148722   5.014   3.975   7.886
14976SOL    HW248723   4.969   4.099   7.981
14977SOL     OW48724   4.318   4.469   8.100
14977SOL    HW148725   4.368   4.554   8.081
14977SOL    HW248726   4.230   4.471   8.052
14978SOL     OW48727   5.501   4.066   9.090
14978SOL    HW148728   5.484   4.097   8.996
14978SOL    HW248729   5.417   4.029   9.128
14979SOL     OW48730   5.454   4.658   8.965
14979SOL    HW148731   5.492   4.749   8.980
14979SOL    HW248732   5.446   4.641   8.866
14980SOL     OW48733   4.583   5.098   7.464
14980SOL    HW148734   4.537   5.113   7.552
14980SOL    HW248735   4.627   5.183   7.434
14981SOL     OW48736   4.385   5.514   8.401
14981SOL    HW148737   4.339   5.602   8.388
14981SOL    HW248738   4.484   5.526   8.394
14982SOL     OW48739   4.583   4.680   8.309
14982SOL    HW148740   4.637   4.611   8.357
14982SOL    HW248741   4.551   4.749   8.375
14983SOL     OW48742   4.807   4.708   7.535
14983SOL    HW148743   4.784   4.761   7.453
14983SOL    HW248744   4.888   4.652   7.516
14984SOL     OW48745   5.585   5.293   8.299
14984SOL    HW148746   5.514   5.281   8.229
14984SOL    HW248747   5.586   5.214   8.359
14985SOL     OW48748   3.945   5.038   9.292
14985SOL    HW148749   3.880   4.965   9.271
14985SOL    HW248750   3.949   5.052   9.390
14986SOL     OW48751   3.803   4.964   8.101
14986SOL    HW148752   3.802   4.917   8.189
14986SOL    HW248753   3.885   4.936   8.050
14987SOL     OW48754   4.396   5.115   9.072
14987SOL    HW148755   4.318   5.065   9.110
14987SOL    HW248756   4.393   5.210   9.103
14988SOL     OW48757   5.548   3.916   8.675
14988SOL    HW148758   5.544   3.826   8.719
14988SOL    HW248759   5.551   3.905   8.576
14989SOL     OW48760   4.152   4.148   7.968
14989SOL    HW148761   4.182   4.076   7.906
14989SOL    HW248762   4.113   4.108   8.051
14990SOL     OW48763   5.429   5.211   8.552
14990SOL    HW148764   5.336   5.186   8.525
14990SOL    HW248765   5.455   5.161   8.634
14991SOL     OW48766   4.041   4.271   8.728
14991SOL    HW148767   4.079   4.212   8.800
14991SOL    HW248768   4.081   4.245   8.640
14992SOL     OW48769   4.536   5.310   8.135
14992SOL    HW148770   4.568   5.320   8.041
14992SOL    HW248771   4.457   5.248   8.137
14993SOL     OW48772   5.148   3.938   8.560
14993SOL    HW148773   5.200   3.873   8.615
14993SOL    HW248774   5.099   4.001   8.621
14994SOL     OW48775   4.725   3.758   8.602
14994SOL    HW148776   4.662   3.686   8.571
14994SOL    HW248777   4.818   3.722   8.602
14995SOL     OW48778   4.494   5.054   7.749
14995SOL    HW148779   4.448   4.967   7.766
14995SOL    HW248780   4.585   5.051   7.790
14996SOL     OW48781   4.342   5.291   8.732
14996SOL    HW148782   4.337   5.373   8.789
14996SOL    HW248783   4.431   5.288   8.687
14997SOL     OW48784   5.076   3.776   7.616
14997SOL    HW148785   5.111   3.735   7.532
14997SOL    HW248786   4.986   3.738   7.636
14998SOL     OW48787   5.024   4.177   8.139
14998SOL    HW148788   4.965   4.257   8.143
14998SOL    HW248789   5.039   4.142   8.232
14999SOL     OW48790   5.317   3.945   8.330
14999SOL    HW148791   5.233   3.944   8.384
14999SOL    HW248792   5.319   4.028   8.274
15000SOL     OW48793   3.763   4.801   7.748
15000SOL    HW148794   3.862   4.790   7.739
15000SOL    HW248795   3.723   4.715   7.780
15001SOL     OW48796   4.599   5.370   7.785
15001SOL    HW148797   4.522   5.335   7.731
15001SOL    HW248798   4.567   5.441   7.847
15002SOL     OW48799   3.954   4.352   9.423
15002SOL    HW148800   3.861   4.350   9.460
15002SOL    HW248801   3.955   4.313   9.331
15003SOL     OW48802   5.479   4.331   9.541
15003SOL    HW148803   5.467   4.318   9.442
15003SOL    HW248804   5.449   4.250   9.590
15004SOL     OW48805   3.955   5.437   9.793
15004SOL    HW148806   3.989   5.514   9.847
15004SOL    HW248807   3.999   5.437   9.703
15005SOL     OW48808   3.954   5.158   9.848
15005SOL    HW148809   3.928   5.254   9.848
15005SOL    HW248810   3.883   5.104   9.893
15006SOL     OW48811   4.330   4.688   9.433
15006SOL    HW148812   4.337   4.772   9.379
15006SOL    HW248813   4.376   4.701   9.521
15007SOL     OW48814   3.846   4.367   9.873
15007SOL    HW148815   3.801   4.279   9.890
15007SOL    HW248816   3.845   4.421   9.957
15008SOL     OW48817   5.566   5.491   9.669
15008SOL    HW148818   5.620   5.462   9.749
15008SOL    HW248819   5.596   5.581   9.640
15009SOL     OW48820   3.751   5.320   9.427
15009SOL    HW148821   3.732   5.224   9.448
15009SOL    HW248822   3.718   5.378   9.502
15010SOL     OW48823   5.413   4.646   9.922
15010SOL    HW148824   5.508   4.617   9.930
15010SOL    HW248825   5.405   4.711   9.847
15011SOL     OW48826   5.365   4.832   9.742
15011SOL    HW148827   5.451   4.834   9.690
15011SOL    HW248828   5.379   4.879   9.830
15012SOL     OW48829   4.337   5.089  10.036
15012SOL    HW148830   4.288   5.002  10.045
15012SOL    HW248831   4.314   5.132   9.949
15013SOL     OW48832   4.533   3.728   9.812
15013SOL    HW148833   4.573   3.819   9.803
15013SOL    HW248834   4.433   3.736   9.818
15014SOL     OW48835   5.249   4.723   9.500
15014SOL    HW148836   5.186   4.647   9.513
15014SOL    HW248837   5.297   4.741   9.586
15015SOL     OW48838   4.322   4.453   9.580
15015SOL    HW148839   4.346   4.522   9.512
15015SOL    HW248840   4.244   4.486   9.634
15016SOL     OW48841   5.300   5.386   9.617
15016SOL    HW148842   5.389   5.432   9.620
15016SOL    HW248843   5.279   5.362   9.522
15017SOL     OW48844   4.765   4.425   9.739
15017SOL    HW148845   4.791   4.421   9.835
15017SOL    HW248846   4.680   4.374   9.725
15018SOL     OW48847   3.800   4.535  10.099
15018SOL    HW148848   3.899   4.523  10.108
15018SOL    HW248849   3.776   4.630  10.120
15019SOL     OW48850   5.086   4.868   9.855
15019SOL    HW148851   5.169   4.839   9.807
15019SOL    HW248852   5.037   4.935   9.799
15020SOL     OW48853   4.732   5.180   9.787
15020SOL    HW148854   4.686   5.252   9.735
15020SOL    HW248855   4.728   5.200   9.885
15021SOL     OW48856   4.075   5.525  10.163
15021SOL    HW148857   4.125   5.439  10.169
15021SOL    HW248858   4.140   5.602  10.160
15022SOL     OW48859   4.045   4.667   9.552
15022SOL    HW148860   4.127   4.706   9.510
15022SOL    HW248861   4.018   4.585   9.503
15023SOL     OW48862   4.835   5.500   9.547
15023SOL    HW148863   4.775   5.438   9.597
15023SOL    HW248864   4.866   5.456   9.462
15024SOL     OW48865   5.356   5.101   9.391
15024SOL    HW148866   5.324   5.195   9.381
15024SOL    HW248867   5.280   5.038   9.379
15025SOL     OW48868   4.188   5.467   9.633
15025SOL    HW148869   4.221   5.506   9.719
15025SOL    HW248870   4.264   5.460   9.568
15026SOL     OW48871   4.106   4.424   9.790
15026SOL    HW148872   4.151   4.334   9.787
15026SOL    HW248873   4.012   4.413   9.823
15027SOL     OW48874   4.338   3.846   9.427
15027SOL    HW148875   4.436   3.824   9.434
15027SOL    HW248876   4.307   3.829   9.334
15028SOL     OW48877   4.263   3.788   9.822
15028SOL    HW148878   4.182   3.789   9.880
15028SOL    HW248879   4.266   3.871   9.767
15029SOL     OW48880   5.158   4.912   9.351
15029SOL    HW148881   5.190   4.836   9.408
15029SOL    HW248882   5.066   4.939   9.381
15030SOL     OW48883   4.021   3.759   9.481
15030SOL    HW148884   4.070   3.843   9.460
15030SOL    HW248885   4.083   3.694   9.526
15031SOL     OW48886   4.659   3.960   9.790
15031SOL    HW148887   4.611   4.001   9.712
15031SOL    HW248888   4.758   3.958   9.771
15032SOL     OW48889   4.183   4.876  10.051
15032SOL    HW148890   4.112   4.849  10.116
15032SOL    HW248891   4.157   4.848   9.958
15033SOL     OW48892   4.995   5.521   9.901
15033SOL    HW148893   5.039   5.585   9.837
15033SOL    HW248894   4.945   5.573   9.971
15034SOL     OW48895   4.756   4.273   9.326
15034SOL    HW148896   4.715   4.355   9.287
15034SOL    HW248897   4.820   4.299   9.399
15035SOL     OW48898   4.590   4.178   9.952
15035SOL    HW148899   4.558   4.250   9.890
15035SOL    HW248900   4.614   4.097   9.899
15036SOL     OW48901   5.581   4.557   9.687
15036SOL    HW148902   5.623   4.493   9.751
15036SOL    HW248903   5.543   4.506   9.609
15037SOL     OW48904   4.212   5.109   9.484
15037SOL    HW148905   4.125   5.094   9.531
15037SOL    HW248906   4.195   5.135   9.389
15038SOL     OW48907   5.114   4.299   9.388
15038SOL    HW148908   5.060   4.278   9.469
15038SOL    HW248909   5.205   4.258   9.397
15039SOL     OW48910   4.251   3.980   9.638
15039SOL    HW148911   4.278   3.921   9.563
15039SOL    HW248912   4.251   4.075   9.607
15040SOL     OW48913   4.429   4.774   9.678
15040SOL    HW148914   4.415   4.781   9.777
15040SOL    HW248915   4.513   4.723   9.660
15041SOL     OW48916   4.091   4.824   9.811
15041SOL    HW148917   4.084   4.907   9.755
15041SOL    HW248918   4.095   4.744   9.751
15042SOL     OW48919   4.976   5.072   9.698
15042SOL    HW148920   5.026   5.149   9.738
15042SOL    HW248921   4.881   5.074   9.730
15043SOL     OW48922   5.306   4.363   9.782
15043SOL    HW148923   5.275   4.424   9.855
15043SOL    HW248924   5.356   4.415   9.713
15044SOL     OW48925   4.031   3.787   9.928
15044SOL    HW148926   4.020   3.881   9.961
15044SOL    HW248927   4.026   3.724  10.005
15045SOL     OW48928   5.346   4.091   9.684
15045SOL    HW148929   5.348   4.015   9.748
15045SOL    HW248930   5.298   4.168   9.724
15046SOL     OW48931   5.264   3.998   9.435
15046SOL    HW148932   5.203   3.923   9.458
15046SOL    HW248933   5.286   4.050   9.518
15047SOL     OW48934   5.027   4.562   9.352
15047SOL    HW148935   5.061   4.469   9.367
15047SOL    HW248936   5.045   4.589   9.257
15048SOL     OW48937   3.732   5.050   9.510
15048SOL    HW148938   3.639   5.071   9.479
15048SOL    HW248939   3.742   4.951   9.523
15049SOL     OW48940   4.539   4.296   9.635
15049SOL    HW148941   4.546   4.207   9.589
15049SOL    HW248942   4.445   4.330   9.627
15050SOL     OW48943   4.197   4.224   9.501
15050SOL    HW148944   4.258   4.304   9.505
15050SOL    HW248945   4.102   4.255   9.508
15051SOL     OW48946   5.026   4.579   9.619
15051SOL    HW148947   4.940   4.548   9.661
15051SOL    HW248948   5.022   4.565   9.520
15052SOL     OW48949   5.450   3.859   9.833
15052SOL    HW148950   5.523   3.842   9.766
15052SOL    HW248951   5.419   3.772   9.871
15053SOL     OW48952   5.112   5.297   9.787
15053SOL    HW148953   5.179   5.309   9.713
15053SOL    HW248954   5.072   5.386   9.810
15054SOL     OW48955   4.396   5.340   9.464
15054SOL    HW148956   4.405   5.350   9.365
15054SOL    HW248957   4.356   5.251   9.485
15055SOL     OW48958   4.918   5.336   9.341
15055SOL    HW148959   4.924   5.243   9.378
15055SOL    HW248960   4.859   5.336   9.261
15056SOL     OW48961   4.640   4.634   9.601
15056SOL    HW148962   4.703   4.672   9.533
15056SOL    HW248963   4.680   4.551   9.640
15057SOL     OW48964   5.228   5.331   9.354
15057SOL    HW148965   5.136   5.368   9.361
15057SOL    HW248966   5.266   5.351   9.264
15058SOL     OW48967   4.314   5.211   9.801
15058SOL    HW148968   4.356   5.153   9.731
15058SOL    HW248969   4.270   5.290   9.757
15059SOL     OW48970   3.979   5.072   9.600
15059SOL    HW148971   3.883   5.073   9.573
15059SOL    HW248972   3.991   5.125   9.684
15060SOL     OW48973   3.799   4.069   9.343
15060SOL    HW148974   3.707   4.041   9.314
15060SOL    HW248975   3.830   4.146   9.287
15061SOL     OW48976   3.796   3.890   9.628
15061SOL    HW148977   3.779   3.973   9.574
15061SOL    HW248978   3.886   3.853   9.606
15062SOL     OW48979   4.907   5.059   9.429
15062SOL    HW148980   4.808   5.048   9.431
15062SOL    HW248981   4.941   5.074   9.522
15063SOL     OW48982   4.949   4.049   9.759
15063SOL    HW148983   5.014   3.975   9.748
15063SOL    HW248984   4.969   4.099   9.843
15064SOL     OW48985   4.318   4.469   9.962
15064SOL    HW148986   4.368   4.554   9.943
15064SOL    HW248987   4.230   4.471   9.914
15065SOL     OW48988   4.583   5.098   9.326
15065SOL    HW148989   4.537   5.113   9.414
15065SOL    HW248990   4.627   5.183   9.296
15066SOL     OW48991   4.807   4.708   9.397
15066SOL    HW148992   4.784   4.761   9.315
15066SOL    HW248993   4.888   4.652   9.378
15067SOL     OW48994   3.803   4.964   9.963
15067SOL    HW148995   3.802   4.917  10.051
15067SOL    HW248996   3.885   4.936   9.912
15068SOL     OW48997   4.152   4.148   9.830
15068SOL    HW148998   4.182   4.076   9.768
15068SOL    HW248999   4.113   4.108   9.913
15069SOL     OW49000   4.494   5.054   9.611
15069SOL    HW149001   4.448   4.967   9.628
15069SOL    HW249002   4.585   5.051   9.652
15070SOL     OW49003   3.763   4.801   9.610
15070SOL    HW149004   3.862   4.790   9.601
15070SOL    HW249005   3.723   4.715   9.642
15071SOL     OW49006   4.599   5.370   9.647
15071SOL    HW149007   4.522   5.335   9.593
15071SOL    HW249008   4.567   5.441   9.709
15072SOL     OW49009   3.954   6.214   0.113
15072SOL    HW149010   3.861   6.212   0.150
15072SOL    HW249011   3.955   6.175   0.021
15073SOL     OW49012   3.949   5.861   0.996
15073SOL    HW149013   3.984   5.844   1.088
15073SOL    HW249014   3.861   5.816   0.984
15074SOL     OW49015   3.743   5.954   0.647
15074SOL    HW149016   3.661   5.997   0.686
15074SOL    HW249017   3.715   5.881   0.584
15075SOL     OW49018   4.293   6.861   1.165
15075SOL    HW149019   4.200   6.854   1.128
15075SOL    HW249020   4.304   6.950   1.209
15076SOL     OW49021   5.279   7.097   0.703
15076SOL    HW149022   5.222   7.081   0.784
15076SOL    HW249023   5.220   7.107   0.623
15077SOL     OW49024   4.859   6.289   0.717
15077SOL    HW149025   4.916   6.367   0.692
15077SOL    HW249026   4.799   6.315   0.793
15078SOL     OW49027   5.479   6.193   0.231
15078SOL    HW149028   5.467   6.180   0.132
15078SOL    HW249029   5.449   6.112   0.280
15079SOL     OW49030   4.492   6.730   1.023
15079SOL    HW149031   4.414   6.747   1.083
15079SOL    HW249032   4.526   6.817   0.987
15080SOL     OW49033   4.574   6.384   1.823
15080SOL    HW149034   4.570   6.460   1.888
15080SOL    HW249035   4.596   6.420   1.732
15081SOL     OW49036   4.409   6.598   0.665
15081SOL    HW149037   4.478   6.582   0.735
15081SOL    HW249038   4.336   6.655   0.703
15082SOL     OW49039   4.410   6.747   1.803
15082SOL    HW149040   4.470   6.826   1.817
15082SOL    HW249041   4.324   6.778   1.762
15083SOL     OW49042   4.059   7.021   1.061
15083SOL    HW149043   3.981   6.990   1.008
15083SOL    HW249044   4.117   7.079   1.004
15084SOL     OW49045   5.184   7.091   1.339
15084SOL    HW149046   5.208   7.185   1.365
15084SOL    HW249047   5.168   7.037   1.421
15085SOL     OW49048   4.162   5.978   1.499
15085SOL    HW149049   4.244   5.922   1.508
15085SOL    HW249050   4.081   5.920   1.503
15086SOL     OW49051   5.327   6.033   0.737
15086SOL    HW149052   5.253   6.079   0.687
15086SOL    HW249053   5.378   6.101   0.790
15087SOL     OW49054   3.955   7.299   0.483
15087SOL    HW149055   3.989   7.376   0.537
15087SOL    HW249056   3.999   7.299   0.393
15088SOL     OW49057   4.851   6.927   1.690
15088SOL    HW149058   4.898   6.927   1.778
15088SOL    HW249059   4.803   6.840   1.679
15089SOL     OW49060   3.964   6.677   0.886
15089SOL    HW149061   3.978   6.593   0.938
15089SOL    HW249062   3.909   6.741   0.941
15090SOL     OW49063   4.344   7.372   1.439
15090SOL    HW149064   4.252   7.355   1.474
15090SOL    HW249065   4.372   7.464   1.465
15091SOL     OW49066   5.318   5.700   1.480
15091SOL    HW149067   5.300   5.767   1.408
15091SOL    HW249068   5.315   5.746   1.569
15092SOL     OW49069   3.846   6.229   0.563
15092SOL    HW149070   3.801   6.141   0.580
15092SOL    HW249071   3.845   6.283   0.647
15093SOL     OW49072   3.751   7.182   0.117
15093SOL    HW149073   3.732   7.086   0.138
15093SOL    HW249074   3.718   7.240   0.192
15094SOL     OW49075   5.413   6.508   0.612
15094SOL    HW149076   5.508   6.479   0.620
15094SOL    HW249077   5.405   6.573   0.537
15095SOL     OW49078   5.365   6.694   0.432
15095SOL    HW149079   5.451   6.696   0.380
15095SOL    HW249080   5.379   6.741   0.520
15096SOL     OW49081   3.837   6.323   1.597
15096SOL    HW149082   3.925   6.310   1.642
15096SOL    HW249083   3.824   6.420   1.575
15097SOL     OW49084   4.337   6.951   0.726
15097SOL    HW149085   4.288   6.864   0.735
15097SOL    HW249086   4.314   6.994   0.639
15098SOL     OW49087   5.017   6.814   1.423
15098SOL    HW149088   5.054   6.741   1.365
15098SOL    HW249089   5.069   6.819   1.508
15099SOL     OW49090   3.921   6.562   1.264
15099SOL    HW149091   4.010   6.517   1.250
15099SOL    HW249092   3.848   6.497   1.245
15100SOL     OW49093   5.249   6.585   0.190
15100SOL    HW149094   5.186   6.509   0.203
15100SOL    HW249095   5.297   6.603   0.276
15101SOL     OW49096   4.911   7.378   1.616
15101SOL    HW149097   4.935   7.438   1.540
15101SOL    HW249098   4.918   7.283   1.586
15102SOL     OW49099   4.041   5.837   1.801
15102SOL    HW149100   4.112   5.908   1.807
15102SOL    HW249101   3.953   5.876   1.829
15103SOL     OW49102   5.190   7.003   0.953
15103SOL    HW149103   5.131   7.009   1.033
15103SOL    HW249104   5.175   6.915   0.907
15104SOL     OW49105   5.391   7.300   0.572
15104SOL    HW149106   5.350   7.277   0.484
15104SOL    HW249107   5.373   7.226   0.637
15105SOL     OW49108   4.322   6.315   0.270
15105SOL    HW149109   4.346   6.384   0.202
15105SOL    HW249110   4.244   6.348   0.324
15106SOL     OW49111   5.005   5.931   0.944
15106SOL    HW149112   4.919   5.881   0.931
15106SOL    HW249113   5.067   5.877   1.000
15107SOL     OW49114   5.300   7.248   0.307
15107SOL    HW149115   5.389   7.294   0.310
15107SOL    HW249116   5.279   7.224   0.212
15108SOL     OW49117   4.531   6.191   1.465
15108SOL    HW149118   4.484   6.188   1.554
15108SOL    HW249119   4.480   6.136   1.399
15109SOL     OW49120   5.118   6.055   1.674
15109SOL    HW149121   5.098   6.098   1.762
15109SOL    HW249122   5.196   5.993   1.683
15110SOL     OW49123   4.697   6.476   1.572
15110SOL    HW149124   4.743   6.392   1.543
15110SOL    HW249125   4.641   6.510   1.497
15111SOL     OW49126   4.715   5.996   1.242
15111SOL    HW149127   4.638   6.030   1.296
15111SOL    HW249128   4.681   5.945   1.163
15112SOL     OW49129   4.765   6.287   0.429
15112SOL    HW149130   4.791   6.283   0.525
15112SOL    HW249131   4.680   6.236   0.415
15113SOL     OW49132   3.800   6.397   0.789
15113SOL    HW149133   3.899   6.385   0.798
15113SOL    HW249134   3.776   6.492   0.810
15114SOL     OW49135   3.854   7.407   1.571
15114SOL    HW149136   3.844   7.392   1.670
15114SOL    HW249137   3.768   7.443   1.535
15115SOL     OW49138   4.589   5.934   0.195
15115SOL    HW149139   4.648   5.997   0.146
15115SOL    HW249140   4.608   5.840   0.166
15116SOL     OW49141   5.443   6.171   1.831
15116SOL    HW149142   5.417   6.260   1.795
15116SOL    HW249143   5.441   6.103   1.758
15117SOL     OW49144   5.086   6.730   0.545
15117SOL    HW149145   5.169   6.701   0.497
15117SOL    HW249146   5.037   6.797   0.489
15118SOL     OW49147   4.274   5.782   0.885
15118SOL    HW149148   4.269   5.777   0.985
15118SOL    HW249149   4.276   5.878   0.856
15119SOL     OW49150   4.732   7.042   0.477
15119SOL    HW149151   4.686   7.114   0.425
15119SOL    HW249152   4.728   7.062   0.575
15120SOL     OW49153   4.075   7.387   0.853
15120SOL    HW149154   4.125   7.301   0.859
15120SOL    HW249155   4.140   7.464   0.850
15121SOL     OW49156   5.519   6.652   0.873
15121SOL    HW149157   5.457   6.637   0.797
15121SOL    HW249158   5.467   6.663   0.958
15122SOL     OW49159   4.951   7.136   1.506
15122SOL    HW149160   4.957   7.059   1.570
15122SOL    HW249161   4.899   7.110   1.426
15123SOL     OW49162   5.182   6.321   0.728
15123SOL    HW149163   5.177   6.256   0.803
15123SOL    HW249164   5.262   6.380   0.741
15124SOL     OW49165   4.185   6.852   1.727
15124SOL    HW149166   4.135   6.853   1.641
15124SOL    HW249167   4.122   6.834   1.803
15125SOL     OW49168   4.835   7.362   0.237
15125SOL    HW149169   4.775   7.300   0.287
15125SOL    HW249170   4.866   7.318   0.152
15126SOL     OW49171   3.926   5.871   1.498
15126SOL    HW149172   3.846   5.931   1.485
15126SOL    HW249173   3.916   5.822   1.584
15127SOL     OW49174   5.356   6.963   0.081
15127SOL    HW149175   5.324   7.057   0.071
15127SOL    HW249176   5.280   6.900   0.069
15128SOL     OW49177   4.188   7.329   0.323
15128SOL    HW149178   4.221   7.368   0.409
15128SOL    HW249179   4.264   7.322   0.258
15129SOL     OW49180   5.124   5.693   0.426
15129SOL    HW149181   5.100   5.656   0.336
15129SOL    HW249182   5.223   5.709   0.430
15130SOL     OW49183   3.973   7.371   1.241
15130SOL    HW149184   4.030   7.306   1.291
15130SOL    HW249185   3.957   7.338   1.148
15131SOL     OW49186   4.664   7.284   0.904
15131SOL    HW149187   4.744   7.227   0.925
15131SOL    HW249188   4.615   7.244   0.827
15132SOL     OW49189   4.106   6.286   0.480
15132SOL    HW149190   4.151   6.196   0.477
15132SOL    HW249191   4.012   6.275   0.513
15133SOL     OW49192   5.271   5.808   1.729
15133SOL    HW149193   5.266   5.845   1.821
15133SOL    HW249194   5.199   5.739   1.717
15134SOL     OW49195   4.338   5.708   0.117
15134SOL    HW149196   4.436   5.686   0.124
15134SOL    HW249197   4.307   5.691   0.024
15135SOL     OW49198   4.505   5.850   1.749
15135SOL    HW149199   4.572   5.789   1.792
15135SOL    HW249200   4.432   5.869   1.814
15136SOL     OW49201   4.612   7.100   1.195
15136SOL    HW149202   4.589   7.075   1.101
15136SOL    HW249203   4.673   7.031   1.234
15137SOL     OW49204   5.075   6.176   1.433
15137SOL    HW149205   5.103   6.133   1.518
15137SOL    HW249206   5.100   6.272   1.434
15138SOL     OW49207   4.527   6.988   0.924
15138SOL    HW149208   4.617   7.002   0.882
15138SOL    HW249209   4.456   6.990   0.853
15139SOL     OW49210   4.646   6.089   0.899
15139SOL    HW149211   4.621   6.080   0.803
15139SOL    HW249212   4.694   6.007   0.930
15140SOL     OW49213   4.263   5.650   0.512
15140SOL    HW149214   4.182   5.651   0.570
15140SOL    HW249215   4.266   5.733   0.457
15141SOL     OW49216   5.158   6.774   0.041
15141SOL    HW149217   5.190   6.698   0.098
15141SOL    HW249218   5.066   6.801   0.071
15142SOL     OW49219   4.659   5.822   0.480
15142SOL    HW149220   4.611   5.863   0.402
15142SOL    HW249221   4.758   5.820   0.461
15143SOL     OW49222   4.800   6.269   1.464
15143SOL    HW149223   4.720   6.208   1.467
15143SOL    HW249224   4.881   6.216   1.440
15144SOL     OW49225   4.951   7.156   0.793
15144SOL    HW149226   4.972   7.230   0.728
15144SOL    HW249227   5.019   7.156   0.866
15145SOL     OW49228   4.183   6.738   0.741
15145SOL    HW149229   4.112   6.711   0.806
15145SOL    HW249230   4.157   6.710   0.648
15146SOL     OW49231   4.995   7.383   0.591
15146SOL    HW149232   5.039   7.447   0.527
15146SOL    HW249233   4.945   7.435   0.661
15147SOL     OW49234   4.756   6.135   0.016
15147SOL    HW149235   4.715   6.217  -0.023
15147SOL    HW249236   4.820   6.161   0.089
15148SOL     OW49237   3.802   6.142   1.386
15148SOL    HW149238   3.894   6.141   1.345
15148SOL    HW249239   3.796   6.216   1.453
15149SOL     OW49240   4.285   5.808   1.147
15149SOL    HW149241   4.323   5.724   1.184
15149SOL    HW249242   4.197   5.827   1.191
15150SOL     OW49243   4.590   6.040   0.642
15150SOL    HW149244   4.558   6.112   0.580
15150SOL    HW249245   4.614   5.959   0.589
15151SOL     OW49246   5.153   6.759   0.867
15151SOL    HW149247   5.098   6.675   0.860
15151SOL    HW249248   5.179   6.788   0.775
15152SOL     OW49249   5.190   6.176   0.992
15152SOL    HW149250   5.160   6.081   0.999
15152SOL    HW249251   5.263   6.192   1.058
15153SOL     OW49252   5.581   6.419   0.377
15153SOL    HW149253   5.623   6.355   0.441
15153SOL    HW249254   5.543   6.368   0.299
15154SOL     OW49255   5.388   6.866   0.657
15154SOL    HW149256   5.487   6.874   0.671
15154SOL    HW249257   5.343   6.950   0.688
15155SOL     OW49258   4.251   5.842   0.328
15155SOL    HW149259   4.278   5.783   0.253
15155SOL    HW249260   4.251   5.937   0.297
15156SOL     OW49261   5.478   6.809   1.588
15156SOL    HW149262   5.569   6.770   1.575
15156SOL    HW249263   5.486   6.905   1.612
15157SOL     OW49264   4.788   6.933   1.340
15157SOL    HW149265   4.708   6.910   1.395
15157SOL    HW249266   4.871   6.907   1.389
15158SOL     OW49267   5.316   7.215   1.625
15158SOL    HW149268   5.343   7.249   1.535
15158SOL    HW249269   5.395   7.177   1.671
15159SOL     OW49270   4.835   6.781   1.100
15159SOL    HW149271   4.795   6.825   1.181
15159SOL    HW249272   4.794   6.818   1.017
15160SOL     OW49273   5.362   6.685   1.079
15160SOL    HW149274   5.367   6.766   1.138
15160SOL    HW249275   5.276   6.687   1.028
15161SOL     OW49276   4.639   5.675   1.402
15161SOL    HW149277   4.664   5.655   1.307
15161SOL    HW249278   4.711   5.731   1.444
15162SOL     OW49279   4.704   6.702   1.719
15162SOL    HW149280   4.605   6.708   1.729
15162SOL    HW249281   4.727   6.622   1.663
15163SOL     OW49282   4.429   6.636   0.368
15163SOL    HW149283   4.415   6.643   0.467
15163SOL    HW249284   4.513   6.585   0.350
15164SOL     OW49285   4.134   6.399   1.251
15164SOL    HW149286   4.220   6.411   1.301
15164SOL    HW249287   4.092   6.312   1.278
15165SOL     OW49288   4.998   5.972   1.262
15165SOL    HW149289   5.019   6.046   1.326
15165SOL    HW249290   4.909   5.989   1.219
15166SOL     OW49291   3.788   7.150   1.331
15166SOL    HW149292   3.742   7.232   1.297
15166SOL    HW249293   3.886   7.169   1.340
15167SOL     OW49294   4.290   6.123   0.865
15167SOL    HW149295   4.302   6.189   0.791
15167SOL    HW249296   4.336   6.157   0.948
15168SOL     OW49297   4.976   6.934   0.388
15168SOL    HW149298   5.026   7.011   0.428
15168SOL    HW249299   4.881   6.936   0.420
15169SOL     OW49300   4.996   7.031   1.142
15169SOL    HW149301   5.043   7.044   1.229
15169SOL    HW249302   4.930   6.957   1.151
15170SOL     OW49303   5.306   6.225   0.472
15170SOL    HW149304   5.275   6.286   0.545
15170SOL    HW249305   5.356   6.277   0.403
15171SOL     OW49306   4.078   7.096   1.329
15171SOL    HW149307   4.057   7.052   1.242
15171SOL    HW249308   4.175   7.122   1.332
15172SOL     OW49309   4.126   6.337   1.598
15172SOL    HW149310   4.194   6.392   1.551
15172SOL    HW249311   4.166   6.249   1.625
15173SOL     OW49312   5.311   6.365   1.670
15173SOL    HW149313   5.219   6.403   1.665
15173SOL    HW249314   5.371   6.412   1.605
15174SOL     OW49315   4.737   5.691   1.770
15174SOL    HW149316   4.743   5.776   1.718
15174SOL    HW249317   4.769   5.615   1.713
15175SOL     OW49318   4.228   5.636   1.740
15175SOL    HW149319   4.186   5.579   1.670
15175SOL    HW249320   4.162   5.705   1.772
15176SOL     OW49321   4.297   6.456   1.029
15176SOL    HW149322   4.341   6.545   1.020
15176SOL    HW249323   4.234   6.456   1.106
15177SOL     OW49324   5.084   6.448   1.045
15177SOL    HW149325   5.009   6.448   0.979
15177SOL    HW249326   5.121   6.356   1.054
15178SOL     OW49327   4.031   5.799   1.231
15178SOL    HW149328   4.008   5.836   1.321
15178SOL    HW249329   4.001   5.704   1.225
15179SOL     OW49330   3.761   6.896   1.282
15179SOL    HW149331   3.814   6.847   1.350
15179SOL    HW249332   3.783   6.994   1.287
15180SOL     OW49333   4.456   6.220   1.064
15180SOL    HW149334   4.515   6.194   0.988
15180SOL    HW249335   4.428   6.316   1.053
15181SOL     OW49336   5.452   6.521   1.854
15181SOL    HW149337   5.406   6.514   1.765
15181SOL    HW249338   5.390   6.565   1.920
15182SOL     OW49339   4.031   5.649   0.618
15182SOL    HW149340   4.020   5.743   0.651
15182SOL    HW249341   4.026   5.586   0.695
15183SOL     OW49342   4.747   6.352   0.966
15183SOL    HW149343   4.762   6.373   1.062
15183SOL    HW249344   4.717   6.257   0.957
15184SOL     OW49345   4.704   7.159   1.700
15184SOL    HW149346   4.684   7.203   1.612
15184SOL    HW249347   4.743   7.068   1.684
15185SOL     OW49348   5.583   7.104   1.605
15185SOL    HW149349   5.597   7.131   1.510
15185SOL    HW249350   5.666   7.126   1.658
15186SOL     OW49351   4.074   6.484   1.804
15186SOL    HW149352   4.150   6.528   1.852
15186SOL    HW249353   4.109   6.437   1.722
15187SOL     OW49354   4.792   6.919   0.849
15187SOL    HW149355   4.799   6.835   0.794
15187SOL    HW249356   4.854   6.988   0.813
15188SOL     OW49357   4.043   6.396   0.949
15188SOL    HW149358   4.136   6.432   0.954
15188SOL    HW249359   4.037   6.311   1.001
15189SOL     OW49360   4.063   6.095   1.006
15189SOL    HW149361   4.011   6.012   0.989
15189SOL    HW249362   4.140   6.100   0.942
15190SOL     OW49363   4.862   5.966   1.678
15190SOL    HW149364   4.817   6.029   1.742
15190SOL    HW249365   4.955   5.997   1.661
15191SOL     OW49366   4.884   5.793   1.477
15191SOL    HW149367   4.884   5.857   1.554
15191SOL    HW249368   4.912   5.841   1.394
15192SOL     OW49369   3.732   6.912   0.200
15192SOL    HW149370   3.639   6.933   0.169
15192SOL    HW249371   3.742   6.813   0.213
15193SOL     OW49372   3.812   7.387   0.927
15193SOL    HW149373   3.770   7.301   0.900
15193SOL    HW249374   3.906   7.390   0.893
15194SOL     OW49375   4.228   7.154   0.910
15194SOL    HW149376   4.294   7.228   0.919
15194SOL    HW249377   4.272   7.075   0.868
15195SOL     OW49378   4.726   6.382   1.238
15195SOL    HW149379   4.767   6.350   1.324
15195SOL    HW249380   4.630   6.355   1.235
15196SOL     OW49381   3.764   6.130   1.114
15196SOL    HW149382   3.849   6.097   1.073
15196SOL    HW249383   3.777   6.145   1.212
15197SOL     OW49384   3.913   6.106   1.722
15197SOL    HW149385   3.972   6.066   1.652
15197SOL    HW249386   3.855   6.177   1.681
15198SOL     OW49387   5.093   6.536   1.660
15198SOL    HW149388   5.132   6.625   1.680
15198SOL    HW249389   5.103   6.516   1.563
15199SOL     OW49390   4.539   6.158   0.325
15199SOL    HW149391   4.546   6.069   0.279
15199SOL    HW249392   4.445   6.192   0.317
15200SOL     OW49393   5.381   6.190   1.206
15200SOL    HW149394   5.343   6.121   1.268
15200SOL    HW249395   5.463   6.154   1.162
15201SOL     OW49396   3.976   7.150   1.744
15201SOL    HW149397   3.946   7.207   1.820
15201SOL    HW249398   3.969   7.053   1.770
15202SOL     OW49399   4.395   6.050   1.269
15202SOL    HW149400   4.361   5.961   1.239
15202SOL    HW249401   4.421   6.104   1.189
15203SOL     OW49402   4.654   7.264   1.465
15203SOL    HW149403   4.630   7.246   1.370
15203SOL    HW249404   4.684   7.358   1.475
15204SOL     OW49405   4.197   6.086   0.191
15204SOL    HW149406   4.258   6.166   0.195
15204SOL    HW249407   4.102   6.117   0.198
15205SOL     OW49408   3.883   6.723   1.466
15205SOL    HW149409   3.905   6.662   1.542
15205SOL    HW249410   3.893   6.674   1.380
15206SOL     OW49411   5.071   6.645   1.234
15206SOL    HW149412   5.095   6.582   1.160
15206SOL    HW249413   4.981   6.685   1.216
15207SOL     OW49414   5.483   7.333   1.154
15207SOL    HW149415   5.544   7.363   1.081
15207SOL    HW249416   5.445   7.244   1.132
15208SOL     OW49417   4.976   7.317   1.128
15208SOL    HW149418   5.060   7.322   1.074
15208SOL    HW249419   4.953   7.221   1.146
15209SOL     OW49420   3.807   6.844   1.022
15209SOL    HW149421   3.802   6.843   1.122
15209SOL    HW249422   3.724   6.803   0.984
15210SOL     OW49423   4.412   7.248   1.716
15210SOL    HW149424   4.356   7.329   1.725
15210SOL    HW249425   4.464   7.252   1.630
15211SOL     OW49426   4.627   5.672   0.133
15211SOL    HW149427   4.678   5.673   0.047
15211SOL    HW249428   4.683   5.630   0.204
15212SOL     OW49429   5.450   5.721   0.523
15212SOL    HW149430   5.523   5.704   0.456
15212SOL    HW249431   5.419   5.634   0.561
15213SOL     OW49432   5.112   7.159   0.477
15213SOL    HW149433   5.179   7.171   0.403
15213SOL    HW249434   5.072   7.248   0.500
15214SOL     OW49435   3.854   7.380   1.851
15214SOL    HW149436   3.813   7.306   1.904
15214SOL    HW249437   3.918   7.431   1.909
15215SOL     OW49438   5.004   6.513   0.672
15215SOL    HW149439   5.064   6.432   0.674
15215SOL    HW249440   5.044   6.582   0.612
15216SOL     OW49441   4.554   6.859   1.422
15216SOL    HW149442   4.549   6.892   1.517
15216SOL    HW249443   4.468   6.878   1.376
15217SOL     OW49444   4.396   7.202   0.154
15217SOL    HW149445   4.405   7.212   0.055
15217SOL    HW249446   4.356   7.113   0.175
15218SOL     OW49447   5.374   7.306   1.394
15218SOL    HW149448   5.427   7.316   1.310
15218SOL    HW249449   5.347   7.396   1.428
15219SOL     OW49450   5.565   5.761   0.963
15219SOL    HW149451   5.604   5.676   0.927
15219SOL    HW249452   5.467   5.763   0.944
15220SOL     OW49453   3.987   5.912   0.720
15220SOL    HW149454   3.908   5.963   0.686
15220SOL    HW249455   3.978   5.897   0.818
15221SOL     OW49456   4.918   7.198   0.031
15221SOL    HW149457   4.924   7.105   0.068
15221SOL    HW249458   4.859   7.198  -0.049
15222SOL     OW49459   4.546   6.588   1.372
15222SOL    HW149460   4.586   6.587   1.280
15222SOL    HW249461   4.556   6.680   1.412
15223SOL     OW49462   4.640   6.496   0.291
15223SOL    HW149463   4.703   6.534   0.223
15223SOL    HW249464   4.680   6.413   0.330
15224SOL     OW49465   5.228   7.193   0.044
15224SOL    HW149466   5.136   7.230   0.051
15224SOL    HW249467   5.266   7.213  -0.046
15225SOL     OW49468   4.096   6.874   1.490
15225SOL    HW149469   4.083   6.967   1.456
15225SOL    HW249470   4.012   6.822   1.477
15226SOL     OW49471   5.338   6.878   1.289
15226SOL    HW149472   5.398   6.881   1.369
15226SOL    HW249473   5.263   6.942   1.302
15227SOL     OW49474   4.763   6.684   0.696
15227SOL    HW149475   4.693   6.637   0.750
15227SOL    HW249476   4.822   6.616   0.653
15228SOL     OW49477   4.738   5.822   0.971
15228SOL    HW149478   4.730   5.786   0.878
15228SOL    HW249479   4.736   5.746   1.036
15229SOL     OW49480   4.314   7.073   0.491
15229SOL    HW149481   4.356   7.015   0.421
15229SOL    HW249482   4.270   7.152   0.447
15230SOL     OW49483   5.433   5.971   1.381
15230SOL    HW149484   5.506   6.040   1.385
15230SOL    HW249485   5.461   5.896   1.322
15231SOL     OW49486   3.979   6.934   0.290
15231SOL    HW149487   3.883   6.935   0.263
15231SOL    HW249488   3.991   6.987   0.374
15232SOL     OW49489   3.829   6.599   1.726
15232SOL    HW149490   3.752   6.566   1.780
15232SOL    HW249491   3.914   6.569   1.768
15233SOL     OW49492   4.396   5.789   1.489
15233SOL    HW149493   4.486   5.773   1.449
15233SOL    HW249494   4.404   5.794   1.588
15234SOL     OW49495   3.799   5.931   0.033
15234SOL    HW149496   3.707   5.903   0.004
15234SOL    HW249497   3.830   6.008  -0.023
15235SOL     OW49498   5.164   6.442   1.398
15235SOL    HW149499   5.107   6.494   1.335
15235SOL    HW249500   5.260   6.454   1.374
15236SOL     OW49501   3.796   5.752   0.318
15236SOL    HW149502   3.779   5.835   0.264
15236SOL    HW249503   3.886   5.715   0.296
15237SOL     OW49504   4.907   6.921   0.119
15237SOL    HW149505   4.808   6.910   0.121
15237SOL    HW249506   4.941   6.936   0.212
15238SOL     OW49507   4.337   6.428   1.431
15238SOL    HW149508   4.393   6.509   1.414
15238SOL    HW249509   4.396   6.348   1.434
15239SOL     OW49510   5.217   7.353   0.959
15239SOL    HW149511   5.250   7.417   0.890
15239SOL    HW249512   5.283   7.347   1.034
15240SOL     OW49513   4.440   6.151   1.708
15240SOL    HW149514   4.459   6.216   1.782
15240SOL    HW249515   4.500   6.071   1.717
15241SOL     OW49516   5.174   6.806   1.633
15241SOL    HW149517   5.165   6.796   1.732
15241SOL    HW249518   5.270   6.799   1.607
15242SOL     OW49519   4.114   7.327   1.560
15242SOL    HW149520   4.023   7.368   1.558
15242SOL    HW249521   4.107   7.233   1.592
15243SOL     OW49522   5.398   6.469   1.254
15243SOL    HW149523   5.371   6.380   1.217
15243SOL    HW249524   5.399   6.537   1.181
15244SOL     OW49525   4.949   5.911   0.449
15244SOL    HW149526   5.014   5.837   0.438
15244SOL    HW249527   4.969   5.961   0.533
15245SOL     OW49528   4.318   6.331   0.652
15245SOL    HW149529   4.368   6.416   0.633
15245SOL    HW249530   4.230   6.333   0.604
15246SOL     OW49531   5.501   5.928   1.642
15246SOL    HW149532   5.484   5.959   1.548
15246SOL    HW249533   5.417   5.891   1.680
15247SOL     OW49534   5.454   6.520   1.517
15247SOL    HW149535   5.492   6.611   1.532
15247SOL    HW249536   5.446   6.503   1.418
15248SOL     OW49537   4.583   6.960   0.016
15248SOL    HW149538   4.537   6.975   0.104
15248SOL    HW249539   4.627   7.045  -0.014
15249SOL     OW49540   4.385   7.376   0.953
15249SOL    HW149541   4.339   7.464   0.940
15249SOL    HW249542   4.484   7.388   0.946
15250SOL     OW49543   4.583   6.542   0.861
15250SOL    HW149544   4.637   6.473   0.909
15250SOL    HW249545   4.551   6.611   0.927
15251SOL     OW49546   4.807   6.570   0.087
15251SOL    HW149547   4.784   6.623   0.005
15251SOL    HW249548   4.888   6.514   0.068
15252SOL     OW49549   5.585   7.155   0.851
15252SOL    HW149550   5.514   7.143   0.781
15252SOL    HW249551   5.586   7.076   0.911
15253SOL     OW49552   3.945   6.900   1.844
15253SOL    HW149553   3.880   6.827   1.823
15253SOL    HW249554   3.949   6.914   1.942
15254SOL     OW49555   4.396   6.977   1.624
15254SOL    HW149556   4.318   6.927   1.662
15254SOL    HW249557   4.393   7.072   1.655
15255SOL     OW49558   5.548   5.778   1.227
15255SOL    HW149559   5.544   5.688   1.271
15255SOL    HW249560   5.551   5.767   1.128
15256SOL     OW49561   4.152   6.010   0.520
15256SOL    HW149562   4.182   5.938   0.458
15256SOL    HW249563   4.113   5.970   0.603
15257SOL     OW49564   5.429   7.073   1.104
15257SOL    HW149565   5.336   7.048   1.077
15257SOL    HW249566   5.455   7.023   1.186
15258SOL     OW49567   4.041   6.133   1.280
15258SOL    HW149568   4.079   6.074   1.352
15258SOL    HW249569   4.081   6.107   1.192
15259SOL     OW49570   4.536   7.172   0.687
15259SOL    HW149571   4.568   7.182   0.593
15259SOL    HW249572   4.457   7.110   0.689
15260SOL     OW49573   5.148   5.800   1.112
15260SOL    HW149574   5.200   5.735   1.167
15260SOL    HW249575   5.099   5.863   1.173
15261SOL     OW49576   4.725   5.620   1.154
15261SOL    HW149577   4.662   5.548   1.123
15261SOL    HW249578   4.818   5.584   1.154
15262SOL     OW49579   4.494   6.916   0.301
15262SOL    HW149580   4.448   6.829   0.318
15262SOL    HW249581   4.585   6.913   0.342
15263SOL     OW49582   4.342   7.153   1.284
15263SOL    HW149583   4.337   7.235   1.341
15263SOL    HW249584   4.431   7.150   1.239
15264SOL     OW49585   5.076   5.638   0.168
15264SOL    HW149586   5.111   5.597   0.084
15264SOL    HW249587   4.986   5.600   0.188
15265SOL     OW49588   5.024   6.039   0.691
15265SOL    HW149589   4.965   6.119   0.695
15265SOL    HW249590   5.039   6.004   0.784
15266SOL     OW49591   5.317   5.807   0.882
15266SOL    HW149592   5.233   5.806   0.936
15266SOL    HW249593   5.319   5.890   0.826
15267SOL     OW49594   3.763   6.663   0.300
15267SOL    HW149595   3.862   6.652   0.291
15267SOL    HW249596   3.723   6.577   0.332
15268SOL     OW49597   4.599   7.232   0.337
15268SOL    HW149598   4.522   7.197   0.283
15268SOL    HW249599   4.567   7.303   0.399
15269SOL     OW49600   3.954   6.214   1.975
15269SOL    HW149601   3.861   6.212   2.012
15269SOL    HW249602   3.955   6.175   1.883
15270SOL     OW49603   3.949   5.861   2.858
15270SOL    HW149604   3.984   5.844   2.950
15270SOL    HW249605   3.861   5.816   2.846
15271SOL     OW49606   3.743   5.954   2.509
15271SOL    HW149607   3.661   5.997   2.548
15271SOL    HW249608   3.715   5.881   2.446
15272SOL     OW49609   4.293   6.861   3.027
15272SOL    HW149610   4.200   6.854   2.990
15272SOL    HW249611   4.304   6.950   3.071
15273SOL     OW49612   5.279   7.097   2.565
15273SOL    HW149613   5.222   7.081   2.646
15273SOL    HW249614   5.220   7.107   2.485
15274SOL     OW49615   4.859   6.289   2.579
15274SOL    HW149616   4.916   6.367   2.554
15274SOL    HW249617   4.799   6.315   2.655
15275SOL     OW49618   5.479   6.193   2.093
15275SOL    HW149619   5.467   6.180   1.994
15275SOL    HW249620   5.449   6.112   2.142
15276SOL     OW49621   4.492   6.730   2.885
15276SOL    HW149622   4.414   6.747   2.945
15276SOL    HW249623   4.526   6.817   2.849
15277SOL     OW49624   4.574   6.384   3.685
15277SOL    HW149625   4.570   6.460   3.750
15277SOL    HW249626   4.596   6.420   3.594
15278SOL     OW49627   4.409   6.598   2.527
15278SOL    HW149628   4.478   6.582   2.597
15278SOL    HW249629   4.336   6.655   2.565
15279SOL     OW49630   4.410   6.747   3.665
15279SOL    HW149631   4.470   6.826   3.679
15279SOL    HW249632   4.324   6.778   3.624
15280SOL     OW49633   4.059   7.021   2.923
15280SOL    HW149634   3.981   6.990   2.870
15280SOL    HW249635   4.117   7.079   2.866
15281SOL     OW49636   5.184   7.091   3.201
15281SOL    HW149637   5.208   7.185   3.227
15281SOL    HW249638   5.168   7.037   3.283
15282SOL     OW49639   4.162   5.978   3.361
15282SOL    HW149640   4.244   5.922   3.370
15282SOL    HW249641   4.081   5.920   3.365
15283SOL     OW49642   5.327   6.033   2.599
15283SOL    HW149643   5.253   6.079   2.549
15283SOL    HW249644   5.378   6.101   2.652
15284SOL     OW49645   3.955   7.299   2.345
15284SOL    HW149646   3.989   7.376   2.399
15284SOL    HW249647   3.999   7.299   2.255
15285SOL     OW49648   4.851   6.927   3.552
15285SOL    HW149649   4.898   6.927   3.640
15285SOL    HW249650   4.803   6.840   3.541
15286SOL     OW49651   3.954   7.020   2.400
15286SOL    HW149652   3.928   7.116   2.400
15286SOL    HW249653   3.883   6.966   2.445
15287SOL     OW49654   3.964   6.677   2.748
15287SOL    HW149655   3.978   6.593   2.800
15287SOL    HW249656   3.909   6.741   2.803
15288SOL     OW49657   4.344   7.372   3.301
15288SOL    HW149658   4.252   7.355   3.336
15288SOL    HW249659   4.372   7.464   3.327
15289SOL     OW49660   4.330   6.550   1.985
15289SOL    HW149661   4.337   6.634   1.931
15289SOL    HW249662   4.376   6.563   2.073
15290SOL     OW49663   5.318   5.700   3.342
15290SOL    HW149664   5.300   5.767   3.270
15290SOL    HW249665   5.315   5.746   3.431
15291SOL     OW49666   3.846   6.229   2.425
15291SOL    HW149667   3.801   6.141   2.442
15291SOL    HW249668   3.845   6.283   2.509
15292SOL     OW49669   5.566   7.353   2.221
15292SOL    HW149670   5.620   7.324   2.301
15292SOL    HW249671   5.596   7.443   2.192
15293SOL     OW49672   3.751   7.182   1.979
15293SOL    HW149673   3.732   7.086   2.000
15293SOL    HW249674   3.718   7.240   2.054
15294SOL     OW49675   5.413   6.508   2.474
15294SOL    HW149676   5.508   6.479   2.482
15294SOL    HW249677   5.405   6.573   2.399
15295SOL     OW49678   5.365   6.694   2.294
15295SOL    HW149679   5.451   6.696   2.242
15295SOL    HW249680   5.379   6.741   2.382
15296SOL     OW49681   3.837   6.323   3.459
15296SOL    HW149682   3.925   6.310   3.504
15296SOL    HW249683   3.824   6.420   3.437
15297SOL     OW49684   4.337   6.951   2.588
15297SOL    HW149685   4.288   6.864   2.597
15297SOL    HW249686   4.314   6.994   2.501
15298SOL     OW49687   5.017   6.814   3.285
15298SOL    HW149688   5.054   6.741   3.227
15298SOL    HW249689   5.069   6.819   3.370
15299SOL     OW49690   4.533   5.590   2.364
15299SOL    HW149691   4.573   5.681   2.355
15299SOL    HW249692   4.433   5.598   2.370
15300SOL     OW49693   3.921   6.562   3.126
15300SOL    HW149694   4.010   6.517   3.112
15300SOL    HW249695   3.848   6.497   3.107
15301SOL     OW49696   5.249   6.585   2.052
15301SOL    HW149697   5.186   6.509   2.065
15301SOL    HW249698   5.297   6.603   2.138
15302SOL     OW49699   4.911   7.378   3.478
15302SOL    HW149700   4.935   7.438   3.402
15302SOL    HW249701   4.918   7.283   3.448
15303SOL     OW49702   4.041   5.837   3.663
15303SOL    HW149703   4.112   5.908   3.669
15303SOL    HW249704   3.953   5.876   3.691
15304SOL     OW49705   5.190   7.003   2.815
15304SOL    HW149706   5.131   7.009   2.895
15304SOL    HW249707   5.175   6.915   2.769
15305SOL     OW49708   5.391   7.300   2.434
15305SOL    HW149709   5.350   7.277   2.346
15305SOL    HW249710   5.373   7.226   2.499
15306SOL     OW49711   4.322   6.315   2.132
15306SOL    HW149712   4.346   6.384   2.064
15306SOL    HW249713   4.244   6.348   2.186
15307SOL     OW49714   5.005   5.931   2.806
15307SOL    HW149715   4.919   5.881   2.793
15307SOL    HW249716   5.067   5.877   2.862
15308SOL     OW49717   5.300   7.248   2.169
15308SOL    HW149718   5.389   7.294   2.172
15308SOL    HW249719   5.279   7.224   2.074
15309SOL     OW49720   4.531   6.191   3.327
15309SOL    HW149721   4.484   6.188   3.416
15309SOL    HW249722   4.480   6.136   3.261
15310SOL     OW49723   5.118   6.055   3.536
15310SOL    HW149724   5.098   6.098   3.624
15310SOL    HW249725   5.196   5.993   3.545
15311SOL     OW49726   4.697   6.476   3.434
15311SOL    HW149727   4.743   6.392   3.405
15311SOL    HW249728   4.641   6.510   3.359
15312SOL     OW49729   4.715   5.996   3.104
15312SOL    HW149730   4.638   6.030   3.158
15312SOL    HW249731   4.681   5.945   3.025
15313SOL     OW49732   4.765   6.287   2.291
15313SOL    HW149733   4.791   6.283   2.387
15313SOL    HW249734   4.680   6.236   2.277
15314SOL     OW49735   3.800   6.397   2.651
15314SOL    HW149736   3.899   6.385   2.660
15314SOL    HW249737   3.776   6.492   2.672
15315SOL     OW49738   3.854   7.407   3.433
15315SOL    HW149739   3.844   7.392   3.532
15315SOL    HW249740   3.768   7.443   3.397
15316SOL     OW49741   4.589   5.934   2.057
15316SOL    HW149742   4.648   5.997   2.008
15316SOL    HW249743   4.608   5.840   2.028
15317SOL     OW49744   5.443   6.171   3.693
15317SOL    HW149745   5.417   6.260   3.657
15317SOL    HW249746   5.441   6.103   3.620
15318SOL     OW49747   5.086   6.730   2.407
15318SOL    HW149748   5.169   6.701   2.359
15318SOL    HW249749   5.037   6.797   2.351
15319SOL     OW49750   4.274   5.782   2.747
15319SOL    HW149751   4.269   5.777   2.847
15319SOL    HW249752   4.276   5.878   2.718
15320SOL     OW49753   4.732   7.042   2.339
15320SOL    HW149754   4.686   7.114   2.287
15320SOL    HW249755   4.728   7.062   2.437
15321SOL     OW49756   4.075   7.387   2.715
15321SOL    HW149757   4.125   7.301   2.721
15321SOL    HW249758   4.140   7.464   2.712
15322SOL     OW49759   5.519   6.652   2.735
15322SOL    HW149760   5.457   6.637   2.659
15322SOL    HW249761   5.467   6.663   2.820
15323SOL     OW49762   4.951   7.136   3.368
15323SOL    HW149763   4.957   7.059   3.432
15323SOL    HW249764   4.899   7.110   3.288
15324SOL     OW49765   4.045   6.529   2.104
15324SOL    HW149766   4.127   6.568   2.062
15324SOL    HW249767   4.018   6.447   2.055
15325SOL     OW49768   5.182   6.321   2.590
15325SOL    HW149769   5.177   6.256   2.665
15325SOL    HW249770   5.262   6.380   2.603
15326SOL     OW49771   4.185   6.852   3.589
15326SOL    HW149772   4.135   6.853   3.503
15326SOL    HW249773   4.122   6.834   3.665
15327SOL     OW49774   4.835   7.362   2.099
15327SOL    HW149775   4.775   7.300   2.149
15327SOL    HW249776   4.866   7.318   2.014
15328SOL     OW49777   3.926   5.871   3.360
15328SOL    HW149778   3.846   5.931   3.347
15328SOL    HW249779   3.916   5.822   3.446
15329SOL     OW49780   5.356   6.963   1.943
15329SOL    HW149781   5.324   7.057   1.933
15329SOL    HW249782   5.280   6.900   1.931
15330SOL     OW49783   4.188   7.329   2.185
15330SOL    HW149784   4.221   7.368   2.271
15330SOL    HW249785   4.264   7.322   2.120
15331SOL     OW49786   5.124   5.693   2.288
15331SOL    HW149787   5.100   5.656   2.198
15331SOL    HW249788   5.223   5.709   2.292
15332SOL     OW49789   3.973   7.371   3.103
15332SOL    HW149790   4.030   7.306   3.153
15332SOL    HW249791   3.957   7.338   3.010
15333SOL     OW49792   4.664   7.284   2.766
15333SOL    HW149793   4.744   7.227   2.787
15333SOL    HW249794   4.615   7.244   2.689
15334SOL     OW49795   4.106   6.286   2.342
15334SOL    HW149796   4.151   6.196   2.339
15334SOL    HW249797   4.012   6.275   2.375
15335SOL     OW49798   5.271   5.808   3.591
15335SOL    HW149799   5.266   5.845   3.683
15335SOL    HW249800   5.199   5.739   3.579
15336SOL     OW49801   4.338   5.708   1.979
15336SOL    HW149802   4.436   5.686   1.986
15336SOL    HW249803   4.307   5.691   1.886
15337SOL     OW49804   4.505   5.850   3.611
15337SOL    HW149805   4.572   5.789   3.654
15337SOL    HW249806   4.432   5.869   3.676
15338SOL     OW49807   4.612   7.100   3.057
15338SOL    HW149808   4.589   7.075   2.963
15338SOL    HW249809   4.673   7.031   3.096
15339SOL     OW49810   5.075   6.176   3.295
15339SOL    HW149811   5.103   6.133   3.380
15339SOL    HW249812   5.100   6.272   3.296
15340SOL     OW49813   4.527   6.988   2.786
15340SOL    HW149814   4.617   7.002   2.744
15340SOL    HW249815   4.456   6.990   2.715
15341SOL     OW49816   4.646   6.089   2.761
15341SOL    HW149817   4.621   6.080   2.665
15341SOL    HW249818   4.694   6.007   2.792
15342SOL     OW49819   4.263   5.650   2.374
15342SOL    HW149820   4.182   5.651   2.432
15342SOL    HW249821   4.266   5.733   2.319
15343SOL     OW49822   5.158   6.774   1.903
15343SOL    HW149823   5.190   6.698   1.960
15343SOL    HW249824   5.066   6.801   1.933
15344SOL     OW49825   4.021   5.621   2.033
15344SOL    HW149826   4.070   5.705   2.012
15344SOL    HW249827   4.083   5.556   2.078
15345SOL     OW49828   4.659   5.822   2.342
15345SOL    HW149829   4.611   5.863   2.264
15345SOL    HW249830   4.758   5.820   2.323
15346SOL     OW49831   4.800   6.269   3.326
15346SOL    HW149832   4.720   6.208   3.329
15346SOL    HW249833   4.881   6.216   3.302
15347SOL     OW49834   4.951   7.156   2.655
15347SOL    HW149835   4.972   7.230   2.590
15347SOL    HW249836   5.019   7.156   2.728
15348SOL     OW49837   4.183   6.738   2.603
15348SOL    HW149838   4.112   6.711   2.668
15348SOL    HW249839   4.157   6.710   2.510
15349SOL     OW49840   4.995   7.383   2.453
15349SOL    HW149841   5.039   7.447   2.389
15349SOL    HW249842   4.945   7.435   2.523
15350SOL     OW49843   4.756   6.135   1.878
15350SOL    HW149844   4.715   6.217   1.839
15350SOL    HW249845   4.820   6.161   1.951
15351SOL     OW49846   3.802   6.142   3.248
15351SOL    HW149847   3.894   6.141   3.207
15351SOL    HW249848   3.796   6.216   3.315
15352SOL     OW49849   4.285   5.808   3.009
15352SOL    HW149850   4.323   5.724   3.046
15352SOL    HW249851   4.197   5.827   3.053
15353SOL     OW49852   4.590   6.040   2.504
15353SOL    HW149853   4.558   6.112   2.442
15353SOL    HW249854   4.614   5.959   2.451
15354SOL     OW49855   4.741   5.625   2.615
15354SOL    HW149856   4.669   5.630   2.546
15354SOL    HW249857   4.717   5.556   2.684
15355SOL     OW49858   5.153   6.759   2.729
15355SOL    HW149859   5.098   6.675   2.722
15355SOL    HW249860   5.179   6.788   2.637
15356SOL     OW49861   5.190   6.176   2.854
15356SOL    HW149862   5.160   6.081   2.861
15356SOL    HW249863   5.263   6.192   2.920
15357SOL     OW49864   5.581   6.419   2.239
15357SOL    HW149865   5.623   6.355   2.303
15357SOL    HW249866   5.543   6.368   2.161
15358SOL     OW49867   4.212   6.971   2.036
15358SOL    HW149868   4.125   6.956   2.083
15358SOL    HW249869   4.195   6.997   1.941
15359SOL     OW49870   5.388   6.866   2.519
15359SOL    HW149871   5.487   6.874   2.533
15359SOL    HW249872   5.343   6.950   2.550
15360SOL     OW49873   5.114   6.161   1.940
15360SOL    HW149874   5.060   6.140   2.021
15360SOL    HW249875   5.205   6.120   1.949
15361SOL     OW49876   4.251   5.842   2.190
15361SOL    HW149877   4.278   5.783   2.115
15361SOL    HW249878   4.251   5.937   2.159
15362SOL     OW49879   5.478   6.809   3.450
15362SOL    HW149880   5.569   6.770   3.437
15362SOL    HW249881   5.486   6.905   3.474
15363SOL     OW49882   4.788   6.933   3.202
15363SOL    HW149883   4.708   6.910   3.257
15363SOL    HW249884   4.871   6.907   3.251
15364SOL     OW49885   5.316   7.215   3.487
15364SOL    HW149886   5.343   7.249   3.397
15364SOL    HW249887   5.395   7.177   3.533
15365SOL     OW49888   4.835   6.781   2.962
15365SOL    HW149889   4.795   6.825   3.043
15365SOL    HW249890   4.794   6.818   2.879
15366SOL     OW49891   5.362   6.685   2.941
15366SOL    HW149892   5.367   6.766   3.000
15366SOL    HW249893   5.276   6.687   2.890
15367SOL     OW49894   4.639   5.675   3.264
15367SOL    HW149895   4.664   5.655   3.169
15367SOL    HW249896   4.711   5.731   3.306
15368SOL     OW49897   4.704   6.702   3.581
15368SOL    HW149898   4.605   6.708   3.591
15368SOL    HW249899   4.727   6.622   3.525
15369SOL     OW49900   4.429   6.636   2.230
15369SOL    HW149901   4.415   6.643   2.329
15369SOL    HW249902   4.513   6.585   2.212
15370SOL     OW49903   4.134   6.399   3.113
15370SOL    HW149904   4.220   6.411   3.163
15370SOL    HW249905   4.092   6.312   3.140
15371SOL     OW49906   4.998   5.972   3.124
15371SOL    HW149907   5.019   6.046   3.188
15371SOL    HW249908   4.909   5.989   3.081
15372SOL     OW49909   3.788   7.150   3.193
15372SOL    HW149910   3.742   7.232   3.159
15372SOL    HW249911   3.886   7.169   3.202
15373SOL     OW49912   4.091   6.686   2.363
15373SOL    HW149913   4.084   6.769   2.307
15373SOL    HW249914   4.095   6.606   2.303
15374SOL     OW49915   4.290   6.123   2.727
15374SOL    HW149916   4.302   6.189   2.653
15374SOL    HW249917   4.336   6.157   2.810
15375SOL     OW49918   4.976   6.934   2.250
15375SOL    HW149919   5.026   7.011   2.290
15375SOL    HW249920   4.881   6.936   2.282
15376SOL     OW49921   4.996   7.031   3.004
15376SOL    HW149922   5.043   7.044   3.091
15376SOL    HW249923   4.930   6.957   3.013
15377SOL     OW49924   5.306   6.225   2.334
15377SOL    HW149925   5.275   6.286   2.407
15377SOL    HW249926   5.356   6.277   2.265
15378SOL     OW49927   4.078   7.096   3.191
15378SOL    HW149928   4.057   7.052   3.104
15378SOL    HW249929   4.175   7.122   3.194
15379SOL     OW49930   4.126   6.337   3.460
15379SOL    HW149931   4.194   6.392   3.413
15379SOL    HW249932   4.166   6.249   3.487
15380SOL     OW49933   5.311   6.365   3.532
15380SOL    HW149934   5.219   6.403   3.527
15380SOL    HW249935   5.371   6.412   3.467
15381SOL     OW49936   4.737   5.691   3.632
15381SOL    HW149937   4.743   5.776   3.580
15381SOL    HW249938   4.769   5.615   3.575
15382SOL     OW49939   4.228   5.636   3.602
15382SOL    HW149940   4.186   5.579   3.532
15382SOL    HW249941   4.162   5.705   3.634
15383SOL     OW49942   4.297   6.456   2.891
15383SOL    HW149943   4.341   6.545   2.882
15383SOL    HW249944   4.234   6.456   2.968
15384SOL     OW49945   5.084   6.448   2.907
15384SOL    HW149946   5.009   6.448   2.841
15384SOL    HW249947   5.121   6.356   2.916
15385SOL     OW49948   4.933   6.111   2.137
15385SOL    HW149949   4.946   6.027   2.191
15385SOL    HW249950   4.904   6.185   2.197
15386SOL     OW49951   4.031   5.799   3.093
15386SOL    HW149952   4.008   5.836   3.183
15386SOL    HW249953   4.001   5.704   3.087
15387SOL     OW49954   3.761   6.896   3.144
15387SOL    HW149955   3.814   6.847   3.212
15387SOL    HW249956   3.783   6.994   3.149
15388SOL     OW49957   4.456   6.220   2.926
15388SOL    HW149958   4.515   6.194   2.850
15388SOL    HW249959   4.428   6.316   2.915
15389SOL     OW49960   5.452   6.521   3.716
15389SOL    HW149961   5.406   6.514   3.627
15389SOL    HW249962   5.390   6.565   3.782
15390SOL     OW49963   4.031   5.649   2.480
15390SOL    HW149964   4.020   5.743   2.513
15390SOL    HW249965   4.026   5.586   2.557
15391SOL     OW49966   5.346   5.953   2.236
15391SOL    HW149967   5.348   5.877   2.300
15391SOL    HW249968   5.298   6.030   2.276
15392SOL     OW49969   4.747   6.352   2.828
15392SOL    HW149970   4.762   6.373   2.924
15392SOL    HW249971   4.717   6.257   2.819
15393SOL     OW49972   4.704   7.159   3.562
15393SOL    HW149973   4.684   7.203   3.474
15393SOL    HW249974   4.743   7.068   3.546
15394SOL     OW49975   5.583   7.104   3.467
15394SOL    HW149976   5.597   7.131   3.372
15394SOL    HW249977   5.666   7.126   3.520
15395SOL     OW49978   4.074   6.484   3.666
15395SOL    HW149979   4.150   6.528   3.714
15395SOL    HW249980   4.109   6.437   3.584
15396SOL     OW49981   5.264   5.860   1.987
15396SOL    HW149982   5.203   5.785   2.010
15396SOL    HW249983   5.286   5.912   2.070
15397SOL     OW49984   5.027   6.424   1.904
15397SOL    HW149985   5.061   6.331   1.919
15397SOL    HW249986   5.045   6.451   1.809
15398SOL     OW49987   4.792   6.919   2.711
15398SOL    HW149988   4.799   6.835   2.656
15398SOL    HW249989   4.854   6.988   2.675
15399SOL     OW49990   4.043   6.396   2.811
15399SOL    HW149991   4.136   6.432   2.816
15399SOL    HW249992   4.037   6.311   2.863
15400SOL     OW49993   4.063   6.095   2.868
15400SOL    HW149994   4.011   6.012   2.851
15400SOL    HW249995   4.140   6.100   2.804
15401SOL     OW49996   4.862   5.966   3.540
15401SOL    HW149997   4.817   6.029   3.604
15401SOL    HW249998   4.955   5.997   3.523
15402SOL     OW49999   4.884   5.793   3.339
15402SOL    HW150000   4.884   5.857   3.416
15402SOL    HW250001   4.912   5.841   3.256
15403SOL     OW50002   3.732   6.912   2.062
15403SOL    HW150003   3.639   6.933   2.031
15403SOL    HW250004   3.742   6.813   2.075
15404SOL     OW50005   3.812   7.387   2.789
15404SOL    HW150006   3.770   7.301   2.762
15404SOL    HW250007   3.906   7.390   2.755
15405SOL     OW50008   4.228   7.154   2.772
15405SOL    HW150009   4.294   7.228   2.781
15405SOL    HW250010   4.272   7.075   2.730
15406SOL     OW50011   4.726   6.382   3.100
15406SOL    HW150012   4.767   6.350   3.186
15406SOL    HW250013   4.630   6.355   3.097
15407SOL     OW50014   3.764   6.130   2.976
15407SOL    HW150015   3.849   6.097   2.935
15407SOL    HW250016   3.777   6.145   3.074
15408SOL     OW50017   3.913   6.106   3.584
15408SOL    HW150018   3.972   6.066   3.514
15408SOL    HW250019   3.855   6.177   3.543
15409SOL     OW50020   5.093   6.536   3.522
15409SOL    HW150021   5.132   6.625   3.542
15409SOL    HW250022   5.103   6.516   3.425
15410SOL     OW50023   4.539   6.158   2.187
15410SOL    HW150024   4.546   6.069   2.141
15410SOL    HW250025   4.445   6.192   2.179
15411SOL     OW50026   5.381   6.190   3.068
15411SOL    HW150027   5.343   6.121   3.130
15411SOL    HW250028   5.463   6.154   3.024
15412SOL     OW50029   3.976   7.150   3.606
15412SOL    HW150030   3.946   7.207   3.682
15412SOL    HW250031   3.969   7.053   3.632
15413SOL     OW50032   4.395   6.050   3.131
15413SOL    HW150033   4.361   5.961   3.101
15413SOL    HW250034   4.421   6.104   3.051
15414SOL     OW50035   4.654   7.264   3.327
15414SOL    HW150036   4.630   7.246   3.232
15414SOL    HW250037   4.684   7.358   3.337
15415SOL     OW50038   4.197   6.086   2.053
15415SOL    HW150039   4.258   6.166   2.057
15415SOL    HW250040   4.102   6.117   2.060
15416SOL     OW50041   3.883   6.723   3.328
15416SOL    HW150042   3.905   6.662   3.404
15416SOL    HW250043   3.893   6.674   3.242
15417SOL     OW50044   5.071   6.645   3.096
15417SOL    HW150045   5.095   6.582   3.022
15417SOL    HW250046   4.981   6.685   3.078
15418SOL     OW50047   5.026   6.441   2.171
15418SOL    HW150048   4.940   6.410   2.213
15418SOL    HW250049   5.022   6.427   2.072
15419SOL     OW50050   5.483   7.333   3.016
15419SOL    HW150051   5.544   7.363   2.943
15419SOL    HW250052   5.445   7.244   2.994
15420SOL     OW50053   4.976   7.317   2.990
15420SOL    HW150054   5.060   7.322   2.936
15420SOL    HW250055   4.953   7.221   3.008
15421SOL     OW50056   3.807   6.844   2.884
15421SOL    HW150057   3.802   6.843   2.984
15421SOL    HW250058   3.724   6.803   2.846
15422SOL     OW50059   4.412   7.248   3.578
15422SOL    HW150060   4.356   7.329   3.587
15422SOL    HW250061   4.464   7.252   3.492
15423SOL     OW50062   5.450   5.721   2.385
15423SOL    HW150063   5.523   5.704   2.318
15423SOL    HW250064   5.419   5.634   2.423
15424SOL     OW50065   5.112   7.159   2.339
15424SOL    HW150066   5.179   7.171   2.265
15424SOL    HW250067   5.072   7.248   2.362
15425SOL     OW50068   3.854   7.380   3.713
15425SOL    HW150069   3.813   7.306   3.766
15425SOL    HW250070   3.918   7.431   3.771
15426SOL     OW50071   5.004   6.513   2.534
15426SOL    HW150072   5.064   6.432   2.536
15426SOL    HW250073   5.044   6.582   2.474
15427SOL     OW50074   4.554   6.859   3.284
15427SOL    HW150075   4.549   6.892   3.379
15427SOL    HW250076   4.468   6.878   3.238
15428SOL     OW50077   4.396   7.202   2.016
15428SOL    HW150078   4.405   7.212   1.917
15428SOL    HW250079   4.356   7.113   2.037
15429SOL     OW50080   5.374   7.306   3.256
15429SOL    HW150081   5.427   7.316   3.172
15429SOL    HW250082   5.347   7.396   3.290
15430SOL     OW50083   5.565   5.761   2.825
15430SOL    HW150084   5.604   5.676   2.789
15430SOL    HW250085   5.467   5.763   2.806
15431SOL     OW50086   3.987   5.912   2.582
15431SOL    HW150087   3.908   5.963   2.548
15431SOL    HW250088   3.978   5.897   2.680
15432SOL     OW50089   4.918   7.198   1.893
15432SOL    HW150090   4.924   7.105   1.930
15432SOL    HW250091   4.859   7.198   1.813
15433SOL     OW50092   4.546   6.588   3.234
15433SOL    HW150093   4.586   6.587   3.142
15433SOL    HW250094   4.556   6.680   3.274
15434SOL     OW50095   4.640   6.496   2.153
15434SOL    HW150096   4.703   6.534   2.085
15434SOL    HW250097   4.680   6.413   2.192
15435SOL     OW50098   5.228   7.193   1.906
15435SOL    HW150099   5.136   7.230   1.913
15435SOL    HW250100   5.266   7.213   1.816
15436SOL     OW50101   4.096   6.874   3.352
15436SOL    HW150102   4.083   6.967   3.318
15436SOL    HW250103   4.012   6.822   3.339
15437SOL     OW50104   5.338   6.878   3.151
15437SOL    HW150105   5.398   6.881   3.231
15437SOL    HW250106   5.263   6.942   3.164
15438SOL     OW50107   4.763   6.684   2.558
15438SOL    HW150108   4.693   6.637   2.612
15438SOL    HW250109   4.822   6.616   2.515
15439SOL     OW50110   4.738   5.822   2.833
15439SOL    HW150111   4.730   5.786   2.740
15439SOL    HW250112   4.736   5.746   2.898
15440SOL     OW50113   4.314   7.073   2.353
15440SOL    HW150114   4.356   7.015   2.283
15440SOL    HW250115   4.270   7.152   2.309
15441SOL     OW50116   5.433   5.971   3.243
15441SOL    HW150117   5.506   6.040   3.247
15441SOL    HW250118   5.461   5.896   3.184
15442SOL     OW50119   3.979   6.934   2.152
15442SOL    HW150120   3.883   6.935   2.125
15442SOL    HW250121   3.991   6.987   2.236
15443SOL     OW50122   3.829   6.599   3.588
15443SOL    HW150123   3.752   6.566   3.642
15443SOL    HW250124   3.914   6.569   3.630
15444SOL     OW50125   4.396   5.789   3.351
15444SOL    HW150126   4.486   5.773   3.311
15444SOL    HW250127   4.404   5.794   3.450
15445SOL     OW50128   3.799   5.931   1.895
15445SOL    HW150129   3.707   5.903   1.866
15445SOL    HW250130   3.830   6.008   1.839
15446SOL     OW50131   5.164   6.442   3.260
15446SOL    HW150132   5.107   6.494   3.197
15446SOL    HW250133   5.260   6.454   3.236
15447SOL     OW50134   3.796   5.752   2.180
15447SOL    HW150135   3.779   5.835   2.126
15447SOL    HW250136   3.886   5.715   2.158
15448SOL     OW50137   4.907   6.921   1.981
15448SOL    HW150138   4.808   6.910   1.983
15448SOL    HW250139   4.941   6.936   2.074
15449SOL     OW50140   4.337   6.428   3.293
15449SOL    HW150141   4.393   6.509   3.276
15449SOL    HW250142   4.396   6.348   3.296
15450SOL     OW50143   5.217   7.353   2.821
15450SOL    HW150144   5.250   7.417   2.752
15450SOL    HW250145   5.283   7.347   2.896
15451SOL     OW50146   4.440   6.151   3.570
15451SOL    HW150147   4.459   6.216   3.644
15451SOL    HW250148   4.500   6.071   3.579
15452SOL     OW50149   5.174   6.806   3.495
15452SOL    HW150150   5.165   6.796   3.594
15452SOL    HW250151   5.270   6.799   3.469
15453SOL     OW50152   4.114   7.327   3.422
15453SOL    HW150153   4.023   7.368   3.420
15453SOL    HW250154   4.107   7.233   3.454
15454SOL     OW50155   5.398   6.469   3.116
15454SOL    HW150156   5.371   6.380   3.079
15454SOL    HW250157   5.399   6.537   3.043
15455SOL     OW50158   4.949   5.911   2.311
15455SOL    HW150159   5.014   5.837   2.300
15455SOL    HW250160   4.969   5.961   2.395
15456SOL     OW50161   4.318   6.331   2.514
15456SOL    HW150162   4.368   6.416   2.495
15456SOL    HW250163   4.230   6.333   2.466
15457SOL     OW50164   5.501   5.928   3.504
15457SOL    HW150165   5.484   5.959   3.410
15457SOL    HW250166   5.417   5.891   3.542
15458SOL     OW50167   5.454   6.520   3.379
15458SOL    HW150168   5.492   6.611   3.394
15458SOL    HW250169   5.446   6.503   3.280
15459SOL     OW50170   4.583   6.960   1.878
15459SOL    HW150171   4.537   6.975   1.966
15459SOL    HW250172   4.627   7.045   1.848
15460SOL     OW50173   4.385   7.376   2.815
15460SOL    HW150174   4.339   7.464   2.802
15460SOL    HW250175   4.484   7.388   2.808
15461SOL     OW50176   4.583   6.542   2.723
15461SOL    HW150177   4.637   6.473   2.771
15461SOL    HW250178   4.551   6.611   2.789
15462SOL     OW50179   4.807   6.570   1.949
15462SOL    HW150180   4.784   6.623   1.867
15462SOL    HW250181   4.888   6.514   1.930
15463SOL     OW50182   5.585   7.155   2.713
15463SOL    HW150183   5.514   7.143   2.643
15463SOL    HW250184   5.586   7.076   2.773
15464SOL     OW50185   3.945   6.900   3.706
15464SOL    HW150186   3.880   6.827   3.685
15464SOL    HW250187   3.949   6.914   3.804
15465SOL     OW50188   3.803   6.826   2.515
15465SOL    HW150189   3.802   6.779   2.603
15465SOL    HW250190   3.885   6.798   2.464
15466SOL     OW50191   4.396   6.977   3.486
15466SOL    HW150192   4.318   6.927   3.524
15466SOL    HW250193   4.393   7.072   3.517
15467SOL     OW50194   5.548   5.778   3.089
15467SOL    HW150195   5.544   5.688   3.133
15467SOL    HW250196   5.551   5.767   2.990
15468SOL     OW50197   4.152   6.010   2.382
15468SOL    HW150198   4.182   5.938   2.320
15468SOL    HW250199   4.113   5.970   2.465
15469SOL     OW50200   5.429   7.073   2.966
15469SOL    HW150201   5.336   7.048   2.939
15469SOL    HW250202   5.455   7.023   3.048
15470SOL     OW50203   4.041   6.133   3.142
15470SOL    HW150204   4.079   6.074   3.214
15470SOL    HW250205   4.081   6.107   3.054
15471SOL     OW50206   4.536   7.172   2.549
15471SOL    HW150207   4.568   7.182   2.455
15471SOL    HW250208   4.457   7.110   2.551
15472SOL     OW50209   5.148   5.800   2.974
15472SOL    HW150210   5.200   5.735   3.029
15472SOL    HW250211   5.099   5.863   3.035
15473SOL     OW50212   4.725   5.620   3.016
15473SOL    HW150213   4.662   5.548   2.985
15473SOL    HW250214   4.818   5.584   3.016
15474SOL     OW50215   4.494   6.916   2.163
15474SOL    HW150216   4.448   6.829   2.180
15474SOL    HW250217   4.585   6.913   2.204
15475SOL     OW50218   4.342   7.153   3.146
15475SOL    HW150219   4.337   7.235   3.203
15475SOL    HW250220   4.431   7.150   3.101
15476SOL     OW50221   5.076   5.638   2.030
15476SOL    HW150222   5.111   5.597   1.946
15476SOL    HW250223   4.986   5.600   2.050
15477SOL     OW50224   5.024   6.039   2.553
15477SOL    HW150225   4.965   6.119   2.557
15477SOL    HW250226   5.039   6.004   2.646
15478SOL     OW50227   5.317   5.807   2.744
15478SOL    HW150228   5.233   5.806   2.798
15478SOL    HW250229   5.319   5.890   2.688
15479SOL     OW50230   3.763   6.663   2.162
15479SOL    HW150231   3.862   6.652   2.153
15479SOL    HW250232   3.723   6.577   2.194
15480SOL     OW50233   4.599   7.232   2.199
15480SOL    HW150234   4.522   7.197   2.145
15480SOL    HW250235   4.567   7.303   2.261
15481SOL     OW50236   3.954   6.214   3.837
15481SOL    HW150237   3.861   6.212   3.874
15481SOL    HW250238   3.955   6.175   3.745
15482SOL     OW50239   3.949   5.861   4.720
15482SOL    HW150240   3.984   5.844   4.812
15482SOL    HW250241   3.861   5.816   4.708
15483SOL     OW50242   3.743   5.954   4.371
15483SOL    HW150243   3.661   5.997   4.410
15483SOL    HW250244   3.715   5.881   4.308
15484SOL     OW50245   4.293   6.861   4.889
15484SOL    HW150246   4.200   6.854   4.852
15484SOL    HW250247   4.304   6.950   4.933
15485SOL     OW50248   5.279   7.097   4.427
15485SOL    HW150249   5.222   7.081   4.508
15485SOL    HW250250   5.220   7.107   4.347
15486SOL     OW50251   4.859   6.289   4.441
15486SOL    HW150252   4.916   6.367   4.416
15486SOL    HW250253   4.799   6.315   4.517
15487SOL     OW50254   5.479   6.193   3.955
15487SOL    HW150255   5.467   6.180   3.856
15487SOL    HW250256   5.449   6.112   4.004
15488SOL     OW50257   4.492   6.730   4.747
15488SOL    HW150258   4.414   6.747   4.807
15488SOL    HW250259   4.526   6.817   4.711
15489SOL     OW50260   4.574   6.384   5.547
15489SOL    HW150261   4.570   6.460   5.612
15489SOL    HW250262   4.596   6.420   5.456
15490SOL     OW50263   4.409   6.598   4.389
15490SOL    HW150264   4.478   6.582   4.459
15490SOL    HW250265   4.336   6.655   4.427
15491SOL     OW50266   4.410   6.747   5.527
15491SOL    HW150267   4.470   6.826   5.541
15491SOL    HW250268   4.324   6.778   5.486
15492SOL     OW50269   4.059   7.021   4.785
15492SOL    HW150270   3.981   6.990   4.732
15492SOL    HW250271   4.117   7.079   4.728
15493SOL     OW50272   5.184   7.091   5.063
15493SOL    HW150273   5.208   7.185   5.089
15493SOL    HW250274   5.168   7.037   5.145
15494SOL     OW50275   4.162   5.978   5.223
15494SOL    HW150276   4.244   5.922   5.232
15494SOL    HW250277   4.081   5.920   5.227
15495SOL     OW50278   5.327   6.033   4.461
15495SOL    HW150279   5.253   6.079   4.411
15495SOL    HW250280   5.378   6.101   4.514
15496SOL     OW50281   3.955   7.299   4.207
15496SOL    HW150282   3.989   7.376   4.261
15496SOL    HW250283   3.999   7.299   4.117
15497SOL     OW50284   4.851   6.927   5.414
15497SOL    HW150285   4.898   6.927   5.502
15497SOL    HW250286   4.803   6.840   5.403
15498SOL     OW50287   3.954   7.020   4.262
15498SOL    HW150288   3.928   7.116   4.262
15498SOL    HW250289   3.883   6.966   4.307
15499SOL     OW50290   3.964   6.677   4.610
15499SOL    HW150291   3.978   6.593   4.662
15499SOL    HW250292   3.909   6.741   4.665
15500SOL     OW50293   4.344   7.372   5.163
15500SOL    HW150294   4.252   7.355   5.198
15500SOL    HW250295   4.372   7.464   5.189
15501SOL     OW50296   4.330   6.550   3.847
15501SOL    HW150297   4.337   6.634   3.793
15501SOL    HW250298   4.376   6.563   3.935
15502SOL     OW50299   5.318   5.700   5.204
15502SOL    HW150300   5.300   5.767   5.132
15502SOL    HW250301   5.315   5.746   5.293
15503SOL     OW50302   3.846   6.229   4.287
15503SOL    HW150303   3.801   6.141   4.304
15503SOL    HW250304   3.845   6.283   4.371
15504SOL     OW50305   5.566   7.353   4.083
15504SOL    HW150306   5.620   7.324   4.163
15504SOL    HW250307   5.596   7.443   4.054
15505SOL     OW50308   3.751   7.182   3.841
15505SOL    HW150309   3.732   7.086   3.862
15505SOL    HW250310   3.718   7.240   3.916
15506SOL     OW50311   5.413   6.508   4.336
15506SOL    HW150312   5.508   6.479   4.344
15506SOL    HW250313   5.405   6.573   4.261
15507SOL     OW50314   5.365   6.694   4.156
15507SOL    HW150315   5.451   6.696   4.104
15507SOL    HW250316   5.379   6.741   4.244
15508SOL     OW50317   3.837   6.323   5.321
15508SOL    HW150318   3.925   6.310   5.366
15508SOL    HW250319   3.824   6.420   5.299
15509SOL     OW50320   4.337   6.951   4.450
15509SOL    HW150321   4.288   6.864   4.459
15509SOL    HW250322   4.314   6.994   4.363
15510SOL     OW50323   5.017   6.814   5.147
15510SOL    HW150324   5.054   6.741   5.089
15510SOL    HW250325   5.069   6.819   5.232
15511SOL     OW50326   4.533   5.590   4.226
15511SOL    HW150327   4.573   5.681   4.217
15511SOL    HW250328   4.433   5.598   4.232
15512SOL     OW50329   3.921   6.562   4.988
15512SOL    HW150330   4.010   6.517   4.974
15512SOL    HW250331   3.848   6.497   4.969
15513SOL     OW50332   5.249   6.585   3.914
15513SOL    HW150333   5.186   6.509   3.927
15513SOL    HW250334   5.297   6.603   4.000
15514SOL     OW50335   4.911   7.378   5.340
15514SOL    HW150336   4.935   7.438   5.264
15514SOL    HW250337   4.918   7.283   5.310
15515SOL     OW50338   4.041   5.837   5.525
15515SOL    HW150339   4.112   5.908   5.531
15515SOL    HW250340   3.953   5.876   5.553
15516SOL     OW50341   5.190   7.003   4.677
15516SOL    HW150342   5.131   7.009   4.757
15516SOL    HW250343   5.175   6.915   4.631
15517SOL     OW50344   5.391   7.300   4.296
15517SOL    HW150345   5.350   7.277   4.208
15517SOL    HW250346   5.373   7.226   4.361
15518SOL     OW50347   4.322   6.315   3.994
15518SOL    HW150348   4.346   6.384   3.926
15518SOL    HW250349   4.244   6.348   4.048
15519SOL     OW50350   5.005   5.931   4.668
15519SOL    HW150351   4.919   5.881   4.655
15519SOL    HW250352   5.067   5.877   4.724
15520SOL     OW50353   5.300   7.248   4.031
15520SOL    HW150354   5.389   7.294   4.034
15520SOL    HW250355   5.279   7.224   3.936
15521SOL     OW50356   4.531   6.191   5.189
15521SOL    HW150357   4.484   6.188   5.278
15521SOL    HW250358   4.480   6.136   5.123
15522SOL     OW50359   5.118   6.055   5.398
15522SOL    HW150360   5.098   6.098   5.486
15522SOL    HW250361   5.196   5.993   5.407
15523SOL     OW50362   4.697   6.476   5.296
15523SOL    HW150363   4.743   6.392   5.267
15523SOL    HW250364   4.641   6.510   5.221
15524SOL     OW50365   4.715   5.996   4.966
15524SOL    HW150366   4.638   6.030   5.020
15524SOL    HW250367   4.681   5.945   4.887
15525SOL     OW50368   4.765   6.287   4.153
15525SOL    HW150369   4.791   6.283   4.249
15525SOL    HW250370   4.680   6.236   4.139
15526SOL     OW50371   3.800   6.397   4.513
15526SOL    HW150372   3.899   6.385   4.522
15526SOL    HW250373   3.776   6.492   4.534
15527SOL     OW50374   3.854   7.407   5.295
15527SOL    HW150375   3.844   7.392   5.394
15527SOL    HW250376   3.768   7.443   5.259
15528SOL     OW50377   4.589   5.934   3.919
15528SOL    HW150378   4.648   5.997   3.870
15528SOL    HW250379   4.608   5.840   3.890
15529SOL     OW50380   5.443   6.171   5.555
15529SOL    HW150381   5.417   6.260   5.519
15529SOL    HW250382   5.441   6.103   5.482
15530SOL     OW50383   5.086   6.730   4.269
15530SOL    HW150384   5.169   6.701   4.221
15530SOL    HW250385   5.037   6.797   4.213
15531SOL     OW50386   4.274   5.782   4.609
15531SOL    HW150387   4.269   5.777   4.709
15531SOL    HW250388   4.276   5.878   4.580
15532SOL     OW50389   4.732   7.042   4.201
15532SOL    HW150390   4.686   7.114   4.149
15532SOL    HW250391   4.728   7.062   4.299
15533SOL     OW50392   4.075   7.387   4.577
15533SOL    HW150393   4.125   7.301   4.583
15533SOL    HW250394   4.140   7.464   4.574
15534SOL     OW50395   5.519   6.652   4.597
15534SOL    HW150396   5.457   6.637   4.521
15534SOL    HW250397   5.467   6.663   4.682
15535SOL     OW50398   4.951   7.136   5.230
15535SOL    HW150399   4.957   7.059   5.294
15535SOL    HW250400   4.899   7.110   5.150
15536SOL     OW50401   4.045   6.529   3.966
15536SOL    HW150402   4.127   6.568   3.924
15536SOL    HW250403   4.018   6.447   3.917
15537SOL     OW50404   5.182   6.321   4.452
15537SOL    HW150405   5.177   6.256   4.527
15537SOL    HW250406   5.262   6.380   4.465
15538SOL     OW50407   4.185   6.852   5.451
15538SOL    HW150408   4.135   6.853   5.365
15538SOL    HW250409   4.122   6.834   5.527
15539SOL     OW50410   4.835   7.362   3.961
15539SOL    HW150411   4.775   7.300   4.011
15539SOL    HW250412   4.866   7.318   3.876
15540SOL     OW50413   3.926   5.871   5.222
15540SOL    HW150414   3.846   5.931   5.209
15540SOL    HW250415   3.916   5.822   5.308
15541SOL     OW50416   5.356   6.963   3.805
15541SOL    HW150417   5.324   7.057   3.795
15541SOL    HW250418   5.280   6.900   3.793
15542SOL     OW50419   4.188   7.329   4.047
15542SOL    HW150420   4.221   7.368   4.133
15542SOL    HW250421   4.264   7.322   3.982
15543SOL     OW50422   5.124   5.693   4.150
15543SOL    HW150423   5.100   5.656   4.060
15543SOL    HW250424   5.223   5.709   4.154
15544SOL     OW50425   3.973   7.371   4.965
15544SOL    HW150426   4.030   7.306   5.015
15544SOL    HW250427   3.957   7.338   4.872
15545SOL     OW50428   4.664   7.284   4.628
15545SOL    HW150429   4.744   7.227   4.649
15545SOL    HW250430   4.615   7.244   4.551
15546SOL     OW50431   4.106   6.286   4.204
15546SOL    HW150432   4.151   6.196   4.201
15546SOL    HW250433   4.012   6.275   4.237
15547SOL     OW50434   5.271   5.808   5.453
15547SOL    HW150435   5.266   5.845   5.545
15547SOL    HW250436   5.199   5.739   5.441
15548SOL     OW50437   4.338   5.708   3.841
15548SOL    HW150438   4.436   5.686   3.848
15548SOL    HW250439   4.307   5.691   3.748
15549SOL     OW50440   4.505   5.850   5.473
15549SOL    HW150441   4.572   5.789   5.516
15549SOL    HW250442   4.432   5.869   5.538
15550SOL     OW50443   4.612   7.100   4.919
15550SOL    HW150444   4.589   7.075   4.825
15550SOL    HW250445   4.673   7.031   4.958
15551SOL     OW50446   5.075   6.176   5.157
15551SOL    HW150447   5.103   6.133   5.242
15551SOL    HW250448   5.100   6.272   5.158
15552SOL     OW50449   4.527   6.988   4.648
15552SOL    HW150450   4.617   7.002   4.606
15552SOL    HW250451   4.456   6.990   4.577
15553SOL     OW50452   4.646   6.089   4.623
15553SOL    HW150453   4.621   6.080   4.527
15553SOL    HW250454   4.694   6.007   4.654
15554SOL     OW50455   4.263   5.650   4.236
15554SOL    HW150456   4.182   5.651   4.294
15554SOL    HW250457   4.266   5.733   4.181
15555SOL     OW50458   5.158   6.774   3.765
15555SOL    HW150459   5.190   6.698   3.822
15555SOL    HW250460   5.066   6.801   3.795
15556SOL     OW50461   4.021   5.621   3.895
15556SOL    HW150462   4.070   5.705   3.874
15556SOL    HW250463   4.083   5.556   3.940
15557SOL     OW50464   4.659   5.822   4.204
15557SOL    HW150465   4.611   5.863   4.126
15557SOL    HW250466   4.758   5.820   4.185
15558SOL     OW50467   4.800   6.269   5.188
15558SOL    HW150468   4.720   6.208   5.191
15558SOL    HW250469   4.881   6.216   5.164
15559SOL     OW50470   4.951   7.156   4.517
15559SOL    HW150471   4.972   7.230   4.452
15559SOL    HW250472   5.019   7.156   4.590
15560SOL     OW50473   4.183   6.738   4.465
15560SOL    HW150474   4.112   6.711   4.530
15560SOL    HW250475   4.157   6.710   4.372
15561SOL     OW50476   4.995   7.383   4.315
15561SOL    HW150477   5.039   7.447   4.251
15561SOL    HW250478   4.945   7.435   4.385
15562SOL     OW50479   4.756   6.135   3.740
15562SOL    HW150480   4.715   6.217   3.701
15562SOL    HW250481   4.820   6.161   3.813
15563SOL     OW50482   3.802   6.142   5.110
15563SOL    HW150483   3.894   6.141   5.069
15563SOL    HW250484   3.796   6.216   5.177
15564SOL     OW50485   4.285   5.808   4.871
15564SOL    HW150486   4.323   5.724   4.908
15564SOL    HW250487   4.197   5.827   4.915
15565SOL     OW50488   4.590   6.040   4.366
15565SOL    HW150489   4.558   6.112   4.304
15565SOL    HW250490   4.614   5.959   4.313
15566SOL     OW50491   4.741   5.625   4.477
15566SOL    HW150492   4.669   5.630   4.408
15566SOL    HW250493   4.717   5.556   4.546
15567SOL     OW50494   5.153   6.759   4.591
15567SOL    HW150495   5.098   6.675   4.584
15567SOL    HW250496   5.179   6.788   4.499
15568SOL     OW50497   5.190   6.176   4.716
15568SOL    HW150498   5.160   6.081   4.723
15568SOL    HW250499   5.263   6.192   4.782
15569SOL     OW50500   5.581   6.419   4.101
15569SOL    HW150501   5.623   6.355   4.165
15569SOL    HW250502   5.543   6.368   4.023
15570SOL     OW50503   4.212   6.971   3.898
15570SOL    HW150504   4.125   6.956   3.945
15570SOL    HW250505   4.195   6.997   3.803
15571SOL     OW50506   5.388   6.866   4.381
15571SOL    HW150507   5.487   6.874   4.395
15571SOL    HW250508   5.343   6.950   4.412
15572SOL     OW50509   5.114   6.161   3.802
15572SOL    HW150510   5.060   6.140   3.883
15572SOL    HW250511   5.205   6.120   3.811
15573SOL     OW50512   4.251   5.842   4.052
15573SOL    HW150513   4.278   5.783   3.977
15573SOL    HW250514   4.251   5.937   4.021
15574SOL     OW50515   5.478   6.809   5.312
15574SOL    HW150516   5.569   6.770   5.299
15574SOL    HW250517   5.486   6.905   5.336
15575SOL     OW50518   4.788   6.933   5.064
15575SOL    HW150519   4.708   6.910   5.119
15575SOL    HW250520   4.871   6.907   5.113
15576SOL     OW50521   5.316   7.215   5.349
15576SOL    HW150522   5.343   7.249   5.259
15576SOL    HW250523   5.395   7.177   5.395
15577SOL     OW50524   4.835   6.781   4.824
15577SOL    HW150525   4.795   6.825   4.905
15577SOL    HW250526   4.794   6.818   4.741
15578SOL     OW50527   5.362   6.685   4.803
15578SOL    HW150528   5.367   6.766   4.862
15578SOL    HW250529   5.276   6.687   4.752
15579SOL     OW50530   4.639   5.675   5.126
15579SOL    HW150531   4.664   5.655   5.031
15579SOL    HW250532   4.711   5.731   5.168
15580SOL     OW50533   4.704   6.702   5.443
15580SOL    HW150534   4.605   6.708   5.453
15580SOL    HW250535   4.727   6.622   5.387
15581SOL     OW50536   4.429   6.636   4.092
15581SOL    HW150537   4.415   6.643   4.191
15581SOL    HW250538   4.513   6.585   4.074
15582SOL     OW50539   4.134   6.399   4.975
15582SOL    HW150540   4.220   6.411   5.025
15582SOL    HW250541   4.092   6.312   5.002
15583SOL     OW50542   4.998   5.972   4.986
15583SOL    HW150543   5.019   6.046   5.050
15583SOL    HW250544   4.909   5.989   4.943
15584SOL     OW50545   3.788   7.150   5.055
15584SOL    HW150546   3.742   7.232   5.021
15584SOL    HW250547   3.886   7.169   5.064
15585SOL     OW50548   4.091   6.686   4.225
15585SOL    HW150549   4.084   6.769   4.169
15585SOL    HW250550   4.095   6.606   4.165
15586SOL     OW50551   4.290   6.123   4.589
15586SOL    HW150552   4.302   6.189   4.515
15586SOL    HW250553   4.336   6.157   4.672
15587SOL     OW50554   4.976   6.934   4.112
15587SOL    HW150555   5.026   7.011   4.152
15587SOL    HW250556   4.881   6.936   4.144
15588SOL     OW50557   4.996   7.031   4.866
15588SOL    HW150558   5.043   7.044   4.953
15588SOL    HW250559   4.930   6.957   4.875
15589SOL     OW50560   5.306   6.225   4.196
15589SOL    HW150561   5.275   6.286   4.269
15589SOL    HW250562   5.356   6.277   4.127
15590SOL     OW50563   4.078   7.096   5.053
15590SOL    HW150564   4.057   7.052   4.966
15590SOL    HW250565   4.175   7.122   5.056
15591SOL     OW50566   4.126   6.337   5.322
15591SOL    HW150567   4.194   6.392   5.275
15591SOL    HW250568   4.166   6.249   5.349
15592SOL     OW50569   5.311   6.365   5.394
15592SOL    HW150570   5.219   6.403   5.389
15592SOL    HW250571   5.371   6.412   5.329
15593SOL     OW50572   4.737   5.691   5.494
15593SOL    HW150573   4.743   5.776   5.442
15593SOL    HW250574   4.769   5.615   5.437
15594SOL     OW50575   4.228   5.636   5.464
15594SOL    HW150576   4.186   5.579   5.394
15594SOL    HW250577   4.162   5.705   5.496
15595SOL     OW50578   4.297   6.456   4.753
15595SOL    HW150579   4.341   6.545   4.744
15595SOL    HW250580   4.234   6.456   4.830
15596SOL     OW50581   5.084   6.448   4.769
15596SOL    HW150582   5.009   6.448   4.703
15596SOL    HW250583   5.121   6.356   4.778
15597SOL     OW50584   4.933   6.111   3.999
15597SOL    HW150585   4.946   6.027   4.053
15597SOL    HW250586   4.904   6.185   4.059
15598SOL     OW50587   4.031   5.799   4.955
15598SOL    HW150588   4.008   5.836   5.045
15598SOL    HW250589   4.001   5.704   4.949
15599SOL     OW50590   3.761   6.896   5.006
15599SOL    HW150591   3.814   6.847   5.074
15599SOL    HW250592   3.783   6.994   5.011
15600SOL     OW50593   4.456   6.220   4.788
15600SOL    HW150594   4.515   6.194   4.712
15600SOL    HW250595   4.428   6.316   4.777
15601SOL     OW50596   5.452   6.521   5.578
15601SOL    HW150597   5.406   6.514   5.489
15601SOL    HW250598   5.390   6.565   5.644
15602SOL     OW50599   4.031   5.649   4.342
15602SOL    HW150600   4.020   5.743   4.375
15602SOL    HW250601   4.026   5.586   4.419
15603SOL     OW50602   5.346   5.953   4.098
15603SOL    HW150603   5.348   5.877   4.162
15603SOL    HW250604   5.298   6.030   4.138
15604SOL     OW50605   4.747   6.352   4.690
15604SOL    HW150606   4.762   6.373   4.786
15604SOL    HW250607   4.717   6.257   4.681
15605SOL     OW50608   4.704   7.159   5.424
15605SOL    HW150609   4.684   7.203   5.336
15605SOL    HW250610   4.743   7.068   5.408
15606SOL     OW50611   5.583   7.104   5.329
15606SOL    HW150612   5.597   7.131   5.234
15606SOL    HW250613   5.666   7.126   5.382
15607SOL     OW50614   4.074   6.484   5.528
15607SOL    HW150615   4.150   6.528   5.576
15607SOL    HW250616   4.109   6.437   5.446
15608SOL     OW50617   5.264   5.860   3.849
15608SOL    HW150618   5.203   5.785   3.872
15608SOL    HW250619   5.286   5.912   3.932
15609SOL     OW50620   5.027   6.424   3.766
15609SOL    HW150621   5.061   6.331   3.781
15609SOL    HW250622   5.045   6.451   3.671
15610SOL     OW50623   4.792   6.919   4.573
15610SOL    HW150624   4.799   6.835   4.518
15610SOL    HW250625   4.854   6.988   4.537
15611SOL     OW50626   4.043   6.396   4.673
15611SOL    HW150627   4.136   6.432   4.678
15611SOL    HW250628   4.037   6.311   4.725
15612SOL     OW50629   4.063   6.095   4.730
15612SOL    HW150630   4.011   6.012   4.713
15612SOL    HW250631   4.140   6.100   4.666
15613SOL     OW50632   4.862   5.966   5.402
15613SOL    HW150633   4.817   6.029   5.466
15613SOL    HW250634   4.955   5.997   5.385
15614SOL     OW50635   4.884   5.793   5.201
15614SOL    HW150636   4.884   5.857   5.278
15614SOL    HW250637   4.912   5.841   5.118
15615SOL     OW50638   3.732   6.912   3.924
15615SOL    HW150639   3.639   6.933   3.893
15615SOL    HW250640   3.742   6.813   3.937
15616SOL     OW50641   3.812   7.387   4.651
15616SOL    HW150642   3.770   7.301   4.624
15616SOL    HW250643   3.906   7.390   4.617
15617SOL     OW50644   4.228   7.154   4.634
15617SOL    HW150645   4.294   7.228   4.643
15617SOL    HW250646   4.272   7.075   4.592
15618SOL     OW50647   4.726   6.382   4.962
15618SOL    HW150648   4.767   6.350   5.048
15618SOL    HW250649   4.630   6.355   4.959
15619SOL     OW50650   3.764   6.130   4.838
15619SOL    HW150651   3.849   6.097   4.797
15619SOL    HW250652   3.777   6.145   4.936
15620SOL     OW50653   3.913   6.106   5.446
15620SOL    HW150654   3.972   6.066   5.376
15620SOL    HW250655   3.855   6.177   5.405
15621SOL     OW50656   5.093   6.536   5.384
15621SOL    HW150657   5.132   6.625   5.404
15621SOL    HW250658   5.103   6.516   5.287
15622SOL     OW50659   4.539   6.158   4.049
15622SOL    HW150660   4.546   6.069   4.003
15622SOL    HW250661   4.445   6.192   4.041
15623SOL     OW50662   5.381   6.190   4.930
15623SOL    HW150663   5.343   6.121   4.992
15623SOL    HW250664   5.463   6.154   4.886
15624SOL     OW50665   3.976   7.150   5.468
15624SOL    HW150666   3.946   7.207   5.544
15624SOL    HW250667   3.969   7.053   5.494
15625SOL     OW50668   4.395   6.050   4.993
15625SOL    HW150669   4.361   5.961   4.963
15625SOL    HW250670   4.421   6.104   4.913
15626SOL     OW50671   4.654   7.264   5.189
15626SOL    HW150672   4.630   7.246   5.094
15626SOL    HW250673   4.684   7.358   5.199
15627SOL     OW50674   4.197   6.086   3.915
15627SOL    HW150675   4.258   6.166   3.919
15627SOL    HW250676   4.102   6.117   3.922
15628SOL     OW50677   3.883   6.723   5.190
15628SOL    HW150678   3.905   6.662   5.266
15628SOL    HW250679   3.893   6.674   5.104
15629SOL     OW50680   5.071   6.645   4.958
15629SOL    HW150681   5.095   6.582   4.884
15629SOL    HW250682   4.981   6.685   4.940
15630SOL     OW50683   5.026   6.441   4.033
15630SOL    HW150684   4.940   6.410   4.075
15630SOL    HW250685   5.022   6.427   3.934
15631SOL     OW50686   5.483   7.333   4.878
15631SOL    HW150687   5.544   7.363   4.805
15631SOL    HW250688   5.445   7.244   4.856
15632SOL     OW50689   4.976   7.317   4.852
15632SOL    HW150690   5.060   7.322   4.798
15632SOL    HW250691   4.953   7.221   4.870
15633SOL     OW50692   3.807   6.844   4.746
15633SOL    HW150693   3.802   6.843   4.846
15633SOL    HW250694   3.724   6.803   4.708
15634SOL     OW50695   4.412   7.248   5.440
15634SOL    HW150696   4.356   7.329   5.449
15634SOL    HW250697   4.464   7.252   5.354
15635SOL     OW50698   5.450   5.721   4.247
15635SOL    HW150699   5.523   5.704   4.180
15635SOL    HW250700   5.419   5.634   4.285
15636SOL     OW50701   5.112   7.159   4.201
15636SOL    HW150702   5.179   7.171   4.127
15636SOL    HW250703   5.072   7.248   4.224
15637SOL     OW50704   3.854   7.380   5.575
15637SOL    HW150705   3.813   7.306   5.628
15637SOL    HW250706   3.918   7.431   5.633
15638SOL     OW50707   5.004   6.513   4.396
15638SOL    HW150708   5.064   6.432   4.398
15638SOL    HW250709   5.044   6.582   4.336
15639SOL     OW50710   4.554   6.859   5.146
15639SOL    HW150711   4.549   6.892   5.241
15639SOL    HW250712   4.468   6.878   5.100
15640SOL     OW50713   4.396   7.202   3.878
15640SOL    HW150714   4.405   7.212   3.779
15640SOL    HW250715   4.356   7.113   3.899
15641SOL     OW50716   5.374   7.306   5.118
15641SOL    HW150717   5.427   7.316   5.034
15641SOL    HW250718   5.347   7.396   5.152
15642SOL     OW50719   5.565   5.761   4.687
15642SOL    HW150720   5.604   5.676   4.651
15642SOL    HW250721   5.467   5.763   4.668
15643SOL     OW50722   3.987   5.912   4.444
15643SOL    HW150723   3.908   5.963   4.410
15643SOL    HW250724   3.978   5.897   4.542
15644SOL     OW50725   4.918   7.198   3.755
15644SOL    HW150726   4.924   7.105   3.792
15644SOL    HW250727   4.859   7.198   3.675
15645SOL     OW50728   4.546   6.588   5.096
15645SOL    HW150729   4.586   6.587   5.004
15645SOL    HW250730   4.556   6.680   5.136
15646SOL     OW50731   4.640   6.496   4.015
15646SOL    HW150732   4.703   6.534   3.947
15646SOL    HW250733   4.680   6.413   4.054
15647SOL     OW50734   5.228   7.193   3.768
15647SOL    HW150735   5.136   7.230   3.775
15647SOL    HW250736   5.266   7.213   3.678
15648SOL     OW50737   4.096   6.874   5.214
15648SOL    HW150738   4.083   6.967   5.180
15648SOL    HW250739   4.012   6.822   5.201
15649SOL     OW50740   5.338   6.878   5.013
15649SOL    HW150741   5.398   6.881   5.093
15649SOL    HW250742   5.263   6.942   5.026
15650SOL     OW50743   4.763   6.684   4.420
15650SOL    HW150744   4.693   6.637   4.474
15650SOL    HW250745   4.822   6.616   4.377
15651SOL     OW50746   4.738   5.822   4.695
15651SOL    HW150747   4.730   5.786   4.602
15651SOL    HW250748   4.736   5.746   4.760
15652SOL     OW50749   4.314   7.073   4.215
15652SOL    HW150750   4.356   7.015   4.145
15652SOL    HW250751   4.270   7.152   4.171
15653SOL     OW50752   5.433   5.971   5.105
15653SOL    HW150753   5.506   6.040   5.109
15653SOL    HW250754   5.461   5.896   5.046
15654SOL     OW50755   3.979   6.934   4.014
15654SOL    HW150756   3.883   6.935   3.987
15654SOL    HW250757   3.991   6.987   4.098
15655SOL     OW50758   3.829   6.599   5.450
15655SOL    HW150759   3.752   6.566   5.504
15655SOL    HW250760   3.914   6.569   5.492
15656SOL     OW50761   4.396   5.789   5.213
15656SOL    HW150762   4.486   5.773   5.173
15656SOL    HW250763   4.404   5.794   5.312
15657SOL     OW50764   3.799   5.931   3.757
15657SOL    HW150765   3.707   5.903   3.728
15657SOL    HW250766   3.830   6.008   3.701
15658SOL     OW50767   5.164   6.442   5.122
15658SOL    HW150768   5.107   6.494   5.059
15658SOL    HW250769   5.260   6.454   5.098
15659SOL     OW50770   3.796   5.752   4.042
15659SOL    HW150771   3.779   5.835   3.988
15659SOL    HW250772   3.886   5.715   4.020
15660SOL     OW50773   4.907   6.921   3.843
15660SOL    HW150774   4.808   6.910   3.845
15660SOL    HW250775   4.941   6.936   3.936
15661SOL     OW50776   4.337   6.428   5.155
15661SOL    HW150777   4.393   6.509   5.138
15661SOL    HW250778   4.396   6.348   5.158
15662SOL     OW50779   5.217   7.353   4.683
15662SOL    HW150780   5.250   7.417   4.614
15662SOL    HW250781   5.283   7.347   4.758
15663SOL     OW50782   4.440   6.151   5.432
15663SOL    HW150783   4.459   6.216   5.506
15663SOL    HW250784   4.500   6.071   5.441
15664SOL     OW50785   5.174   6.806   5.357
15664SOL    HW150786   5.165   6.796   5.456
15664SOL    HW250787   5.270   6.799   5.331
15665SOL     OW50788   4.114   7.327   5.284
15665SOL    HW150789   4.023   7.368   5.282
15665SOL    HW250790   4.107   7.233   5.316
15666SOL     OW50791   5.398   6.469   4.978
15666SOL    HW150792   5.371   6.380   4.941
15666SOL    HW250793   5.399   6.537   4.905
15667SOL     OW50794   4.949   5.911   4.173
15667SOL    HW150795   5.014   5.837   4.162
15667SOL    HW250796   4.969   5.961   4.257
15668SOL     OW50797   4.318   6.331   4.376
15668SOL    HW150798   4.368   6.416   4.357
15668SOL    HW250799   4.230   6.333   4.328
15669SOL     OW50800   5.501   5.928   5.366
15669SOL    HW150801   5.484   5.959   5.272
15669SOL    HW250802   5.417   5.891   5.404
15670SOL     OW50803   5.454   6.520   5.241
15670SOL    HW150804   5.492   6.611   5.256
15670SOL    HW250805   5.446   6.503   5.142
15671SOL     OW50806   4.583   6.960   3.740
15671SOL    HW150807   4.537   6.975   3.828
15671SOL    HW250808   4.627   7.045   3.710
15672SOL     OW50809   4.385   7.376   4.677
15672SOL    HW150810   4.339   7.464   4.664
15672SOL    HW250811   4.484   7.388   4.670
15673SOL     OW50812   4.583   6.542   4.585
15673SOL    HW150813   4.637   6.473   4.633
15673SOL    HW250814   4.551   6.611   4.651
15674SOL     OW50815   4.807   6.570   3.811
15674SOL    HW150816   4.784   6.623   3.729
15674SOL    HW250817   4.888   6.514   3.792
15675SOL     OW50818   5.585   7.155   4.575
15675SOL    HW150819   5.514   7.143   4.505
15675SOL    HW250820   5.586   7.076   4.635
15676SOL     OW50821   3.945   6.900   5.568
15676SOL    HW150822   3.880   6.827   5.547
15676SOL    HW250823   3.949   6.914   5.666
15677SOL     OW50824   3.803   6.826   4.377
15677SOL    HW150825   3.802   6.779   4.465
15677SOL    HW250826   3.885   6.798   4.326
15678SOL     OW50827   4.396   6.977   5.348
15678SOL    HW150828   4.318   6.927   5.386
15678SOL    HW250829   4.393   7.072   5.379
15679SOL     OW50830   5.548   5.778   4.951
15679SOL    HW150831   5.544   5.688   4.995
15679SOL    HW250832   5.551   5.767   4.852
15680SOL     OW50833   4.152   6.010   4.244
15680SOL    HW150834   4.182   5.938   4.182
15680SOL    HW250835   4.113   5.970   4.327
15681SOL     OW50836   5.429   7.073   4.828
15681SOL    HW150837   5.336   7.048   4.801
15681SOL    HW250838   5.455   7.023   4.910
15682SOL     OW50839   4.041   6.133   5.004
15682SOL    HW150840   4.079   6.074   5.076
15682SOL    HW250841   4.081   6.107   4.916
15683SOL     OW50842   4.536   7.172   4.411
15683SOL    HW150843   4.568   7.182   4.317
15683SOL    HW250844   4.457   7.110   4.413
15684SOL     OW50845   5.148   5.800   4.836
15684SOL    HW150846   5.200   5.735   4.891
15684SOL    HW250847   5.099   5.863   4.897
15685SOL     OW50848   4.725   5.620   4.878
15685SOL    HW150849   4.662   5.548   4.847
15685SOL    HW250850   4.818   5.584   4.878
15686SOL     OW50851   4.494   6.916   4.025
15686SOL    HW150852   4.448   6.829   4.042
15686SOL    HW250853   4.585   6.913   4.066
15687SOL     OW50854   4.342   7.153   5.008
15687SOL    HW150855   4.337   7.235   5.065
15687SOL    HW250856   4.431   7.150   4.963
15688SOL     OW50857   5.076   5.638   3.892
15688SOL    HW150858   5.111   5.597   3.808
15688SOL    HW250859   4.986   5.600   3.912
15689SOL     OW50860   5.024   6.039   4.415
15689SOL    HW150861   4.965   6.119   4.419
15689SOL    HW250862   5.039   6.004   4.508
15690SOL     OW50863   5.317   5.807   4.606
15690SOL    HW150864   5.233   5.806   4.660
15690SOL    HW250865   5.319   5.890   4.550
15691SOL     OW50866   3.763   6.663   4.024
15691SOL    HW150867   3.862   6.652   4.015
15691SOL    HW250868   3.723   6.577   4.056
15692SOL     OW50869   4.599   7.232   4.061
15692SOL    HW150870   4.522   7.197   4.007
15692SOL    HW250871   4.567   7.303   4.123
15693SOL     OW50872   3.954   6.214   5.699
15693SOL    HW150873   3.861   6.212   5.736
15693SOL    HW250874   3.955   6.175   5.607
15694SOL     OW50875   3.949   5.861   6.582
15694SOL    HW150876   3.984   5.844   6.674
15694SOL    HW250877   3.861   5.816   6.570
15695SOL     OW50878   3.743   5.954   6.233
15695SOL    HW150879   3.661   5.997   6.272
15695SOL    HW250880   3.715   5.881   6.170
15696SOL     OW50881   4.293   6.861   6.751
15696SOL    HW150882   4.200   6.854   6.714
15696SOL    HW250883   4.304   6.950   6.795
15697SOL     OW50884   5.279   7.097   6.289
15697SOL    HW150885   5.222   7.081   6.370
15697SOL    HW250886   5.220   7.107   6.209
15698SOL     OW50887   4.859   6.289   6.303
15698SOL    HW150888   4.916   6.367   6.278
15698SOL    HW250889   4.799   6.315   6.379
15699SOL     OW50890   5.479   6.193   5.817
15699SOL    HW150891   5.467   6.180   5.718
15699SOL    HW250892   5.449   6.112   5.866
15700SOL     OW50893   4.492   6.730   6.609
15700SOL    HW150894   4.414   6.747   6.669
15700SOL    HW250895   4.526   6.817   6.573
15701SOL     OW50896   4.574   6.384   7.409
15701SOL    HW150897   4.570   6.460   7.474
15701SOL    HW250898   4.596   6.420   7.318
15702SOL     OW50899   4.409   6.598   6.251
15702SOL    HW150900   4.478   6.582   6.321
15702SOL    HW250901   4.336   6.655   6.289
15703SOL     OW50902   4.410   6.747   7.389
15703SOL    HW150903   4.470   6.826   7.403
15703SOL    HW250904   4.324   6.778   7.348
15704SOL     OW50905   4.059   7.021   6.647
15704SOL    HW150906   3.981   6.990   6.594
15704SOL    HW250907   4.117   7.079   6.590
15705SOL     OW50908   5.184   7.091   6.925
15705SOL    HW150909   5.208   7.185   6.951
15705SOL    HW250910   5.168   7.037   7.007
15706SOL     OW50911   4.162   5.978   7.085
15706SOL    HW150912   4.244   5.922   7.094
15706SOL    HW250913   4.081   5.920   7.089
15707SOL     OW50914   5.327   6.033   6.323
15707SOL    HW150915   5.253   6.079   6.273
15707SOL    HW250916   5.378   6.101   6.376
15708SOL     OW50917   3.955   7.299   6.069
15708SOL    HW150918   3.989   7.376   6.123
15708SOL    HW250919   3.999   7.299   5.979
15709SOL     OW50920   4.851   6.927   7.276
15709SOL    HW150921   4.898   6.927   7.364
15709SOL    HW250922   4.803   6.840   7.265
15710SOL     OW50923   3.954   7.020   6.124
15710SOL    HW150924   3.928   7.116   6.124
15710SOL    HW250925   3.883   6.966   6.169
15711SOL     OW50926   3.964   6.677   6.472
15711SOL    HW150927   3.978   6.593   6.524
15711SOL    HW250928   3.909   6.741   6.527
15712SOL     OW50929   4.344   7.372   7.025
15712SOL    HW150930   4.252   7.355   7.060
15712SOL    HW250931   4.372   7.464   7.051
15713SOL     OW50932   4.330   6.550   5.709
15713SOL    HW150933   4.337   6.634   5.655
15713SOL    HW250934   4.376   6.563   5.797
15714SOL     OW50935   5.318   5.700   7.066
15714SOL    HW150936   5.300   5.767   6.994
15714SOL    HW250937   5.315   5.746   7.155
15715SOL     OW50938   3.846   6.229   6.149
15715SOL    HW150939   3.801   6.141   6.166
15715SOL    HW250940   3.845   6.283   6.233
15716SOL     OW50941   5.566   7.353   5.945
15716SOL    HW150942   5.620   7.324   6.025
15716SOL    HW250943   5.596   7.443   5.916
15717SOL     OW50944   3.751   7.182   5.703
15717SOL    HW150945   3.732   7.086   5.724
15717SOL    HW250946   3.718   7.240   5.778
15718SOL     OW50947   5.413   6.508   6.198
15718SOL    HW150948   5.508   6.479   6.206
15718SOL    HW250949   5.405   6.573   6.123
15719SOL     OW50950   5.365   6.694   6.018
15719SOL    HW150951   5.451   6.696   5.966
15719SOL    HW250952   5.379   6.741   6.106
15720SOL     OW50953   3.837   6.323   7.183
15720SOL    HW150954   3.925   6.310   7.228
15720SOL    HW250955   3.824   6.420   7.161
15721SOL     OW50956   4.337   6.951   6.312
15721SOL    HW150957   4.288   6.864   6.321
15721SOL    HW250958   4.314   6.994   6.225
15722SOL     OW50959   5.017   6.814   7.009
15722SOL    HW150960   5.054   6.741   6.951
15722SOL    HW250961   5.069   6.819   7.094
15723SOL     OW50962   4.533   5.590   6.088
15723SOL    HW150963   4.573   5.681   6.079
15723SOL    HW250964   4.433   5.598   6.094
15724SOL     OW50965   3.921   6.562   6.850
15724SOL    HW150966   4.010   6.517   6.836
15724SOL    HW250967   3.848   6.497   6.831
15725SOL     OW50968   5.249   6.585   5.776
15725SOL    HW150969   5.186   6.509   5.789
15725SOL    HW250970   5.297   6.603   5.862
15726SOL     OW50971   4.911   7.378   7.202
15726SOL    HW150972   4.935   7.438   7.126
15726SOL    HW250973   4.918   7.283   7.172
15727SOL     OW50974   4.041   5.837   7.387
15727SOL    HW150975   4.112   5.908   7.393
15727SOL    HW250976   3.953   5.876   7.415
15728SOL     OW50977   5.190   7.003   6.539
15728SOL    HW150978   5.131   7.009   6.619
15728SOL    HW250979   5.175   6.915   6.493
15729SOL     OW50980   5.391   7.300   6.158
15729SOL    HW150981   5.350   7.277   6.070
15729SOL    HW250982   5.373   7.226   6.223
15730SOL     OW50983   4.322   6.315   5.856
15730SOL    HW150984   4.346   6.384   5.788
15730SOL    HW250985   4.244   6.348   5.910
15731SOL     OW50986   5.005   5.931   6.530
15731SOL    HW150987   4.919   5.881   6.517
15731SOL    HW250988   5.067   5.877   6.586
15732SOL     OW50989   5.300   7.248   5.893
15732SOL    HW150990   5.389   7.294   5.896
15732SOL    HW250991   5.279   7.224   5.798
15733SOL     OW50992   4.531   6.191   7.051
15733SOL    HW150993   4.484   6.188   7.140
15733SOL    HW250994   4.480   6.136   6.985
15734SOL     OW50995   5.118   6.055   7.260
15734SOL    HW150996   5.098   6.098   7.348
15734SOL    HW250997   5.196   5.993   7.269
15735SOL     OW50998   4.697   6.476   7.158
15735SOL    HW150999   4.743   6.392   7.129
15735SOL    HW251000   4.641   6.510   7.083
15736SOL     OW51001   4.715   5.996   6.828
15736SOL    HW151002   4.638   6.030   6.882
15736SOL    HW251003   4.681   5.945   6.749
15737SOL     OW51004   4.765   6.287   6.015
15737SOL    HW151005   4.791   6.283   6.111
15737SOL    HW251006   4.680   6.236   6.001
15738SOL     OW51007   3.800   6.397   6.375
15738SOL    HW151008   3.899   6.385   6.384
15738SOL    HW251009   3.776   6.492   6.396
15739SOL     OW51010   3.854   7.407   7.157
15739SOL    HW151011   3.844   7.392   7.256
15739SOL    HW251012   3.768   7.443   7.121
15740SOL     OW51013   4.589   5.934   5.781
15740SOL    HW151014   4.648   5.997   5.732
15740SOL    HW251015   4.608   5.840   5.752
15741SOL     OW51016   5.443   6.171   7.417
15741SOL    HW151017   5.417   6.260   7.381
15741SOL    HW251018   5.441   6.103   7.344
15742SOL     OW51019   5.086   6.730   6.131
15742SOL    HW151020   5.169   6.701   6.083
15742SOL    HW251021   5.037   6.797   6.075
15743SOL     OW51022   4.274   5.782   6.471
15743SOL    HW151023   4.269   5.777   6.571
15743SOL    HW251024   4.276   5.878   6.442
15744SOL     OW51025   4.732   7.042   6.063
15744SOL    HW151026   4.686   7.114   6.011
15744SOL    HW251027   4.728   7.062   6.161
15745SOL     OW51028   4.075   7.387   6.439
15745SOL    HW151029   4.125   7.301   6.445
15745SOL    HW251030   4.140   7.464   6.436
15746SOL     OW51031   5.519   6.652   6.459
15746SOL    HW151032   5.457   6.637   6.383
15746SOL    HW251033   5.467   6.663   6.544
15747SOL     OW51034   4.951   7.136   7.092
15747SOL    HW151035   4.957   7.059   7.156
15747SOL    HW251036   4.899   7.110   7.012
15748SOL     OW51037   4.045   6.529   5.828
15748SOL    HW151038   4.127   6.568   5.786
15748SOL    HW251039   4.018   6.447   5.779
15749SOL     OW51040   5.182   6.321   6.314
15749SOL    HW151041   5.177   6.256   6.389
15749SOL    HW251042   5.262   6.380   6.327
15750SOL     OW51043   4.185   6.852   7.313
15750SOL    HW151044   4.135   6.853   7.227
15750SOL    HW251045   4.122   6.834   7.389
15751SOL     OW51046   4.835   7.362   5.823
15751SOL    HW151047   4.775   7.300   5.873
15751SOL    HW251048   4.866   7.318   5.738
15752SOL     OW51049   3.926   5.871   7.084
15752SOL    HW151050   3.846   5.931   7.071
15752SOL    HW251051   3.916   5.822   7.170
15753SOL     OW51052   5.356   6.963   5.667
15753SOL    HW151053   5.324   7.057   5.657
15753SOL    HW251054   5.280   6.900   5.655
15754SOL     OW51055   4.188   7.329   5.909
15754SOL    HW151056   4.221   7.368   5.995
15754SOL    HW251057   4.264   7.322   5.844
15755SOL     OW51058   5.124   5.693   6.012
15755SOL    HW151059   5.100   5.656   5.922
15755SOL    HW251060   5.223   5.709   6.016
15756SOL     OW51061   3.973   7.371   6.827
15756SOL    HW151062   4.030   7.306   6.877
15756SOL    HW251063   3.957   7.338   6.734
15757SOL     OW51064   4.664   7.284   6.490
15757SOL    HW151065   4.744   7.227   6.511
15757SOL    HW251066   4.615   7.244   6.413
15758SOL     OW51067   4.106   6.286   6.066
15758SOL    HW151068   4.151   6.196   6.063
15758SOL    HW251069   4.012   6.275   6.099
15759SOL     OW51070   5.271   5.808   7.315
15759SOL    HW151071   5.266   5.845   7.407
15759SOL    HW251072   5.199   5.739   7.303
15760SOL     OW51073   4.338   5.708   5.703
15760SOL    HW151074   4.436   5.686   5.710
15760SOL    HW251075   4.307   5.691   5.610
15761SOL     OW51076   4.505   5.850   7.335
15761SOL    HW151077   4.572   5.789   7.378
15761SOL    HW251078   4.432   5.869   7.400
15762SOL     OW51079   4.612   7.100   6.781
15762SOL    HW151080   4.589   7.075   6.687
15762SOL    HW251081   4.673   7.031   6.820
15763SOL     OW51082   5.075   6.176   7.019
15763SOL    HW151083   5.103   6.133   7.104
15763SOL    HW251084   5.100   6.272   7.020
15764SOL     OW51085   4.527   6.988   6.510
15764SOL    HW151086   4.617   7.002   6.468
15764SOL    HW251087   4.456   6.990   6.439
15765SOL     OW51088   4.646   6.089   6.485
15765SOL    HW151089   4.621   6.080   6.389
15765SOL    HW251090   4.694   6.007   6.516
15766SOL     OW51091   4.263   5.650   6.098
15766SOL    HW151092   4.182   5.651   6.156
15766SOL    HW251093   4.266   5.733   6.043
15767SOL     OW51094   5.158   6.774   5.627
15767SOL    HW151095   5.190   6.698   5.684
15767SOL    HW251096   5.066   6.801   5.657
15768SOL     OW51097   4.021   5.621   5.757
15768SOL    HW151098   4.070   5.705   5.736
15768SOL    HW251099   4.083   5.556   5.802
15769SOL     OW51100   4.659   5.822   6.066
15769SOL    HW151101   4.611   5.863   5.988
15769SOL    HW251102   4.758   5.820   6.047
15770SOL     OW51103   4.800   6.269   7.050
15770SOL    HW151104   4.720   6.208   7.053
15770SOL    HW251105   4.881   6.216   7.026
15771SOL     OW51106   4.951   7.156   6.379
15771SOL    HW151107   4.972   7.230   6.314
15771SOL    HW251108   5.019   7.156   6.452
15772SOL     OW51109   4.183   6.738   6.327
15772SOL    HW151110   4.112   6.711   6.392
15772SOL    HW251111   4.157   6.710   6.234
15773SOL     OW51112   4.995   7.383   6.177
15773SOL    HW151113   5.039   7.447   6.113
15773SOL    HW251114   4.945   7.435   6.247
15774SOL     OW51115   4.756   6.135   5.602
15774SOL    HW151116   4.715   6.217   5.563
15774SOL    HW251117   4.820   6.161   5.675
15775SOL     OW51118   3.802   6.142   6.972
15775SOL    HW151119   3.894   6.141   6.931
15775SOL    HW251120   3.796   6.216   7.039
15776SOL     OW51121   4.285   5.808   6.733
15776SOL    HW151122   4.323   5.724   6.770
15776SOL    HW251123   4.197   5.827   6.777
15777SOL     OW51124   4.590   6.040   6.228
15777SOL    HW151125   4.558   6.112   6.166
15777SOL    HW251126   4.614   5.959   6.175
15778SOL     OW51127   4.741   5.625   6.339
15778SOL    HW151128   4.669   5.630   6.270
15778SOL    HW251129   4.717   5.556   6.408
15779SOL     OW51130   5.153   6.759   6.453
15779SOL    HW151131   5.098   6.675   6.446
15779SOL    HW251132   5.179   6.788   6.361
15780SOL     OW51133   5.190   6.176   6.578
15780SOL    HW151134   5.160   6.081   6.585
15780SOL    HW251135   5.263   6.192   6.644
15781SOL     OW51136   5.581   6.419   5.963
15781SOL    HW151137   5.623   6.355   6.027
15781SOL    HW251138   5.543   6.368   5.885
15782SOL     OW51139   4.212   6.971   5.760
15782SOL    HW151140   4.125   6.956   5.807
15782SOL    HW251141   4.195   6.997   5.665
15783SOL     OW51142   5.388   6.866   6.243
15783SOL    HW151143   5.487   6.874   6.257
15783SOL    HW251144   5.343   6.950   6.274
15784SOL     OW51145   5.114   6.161   5.664
15784SOL    HW151146   5.060   6.140   5.745
15784SOL    HW251147   5.205   6.120   5.673
15785SOL     OW51148   4.251   5.842   5.914
15785SOL    HW151149   4.278   5.783   5.839
15785SOL    HW251150   4.251   5.937   5.883
15786SOL     OW51151   5.478   6.809   7.174
15786SOL    HW151152   5.569   6.770   7.161
15786SOL    HW251153   5.486   6.905   7.198
15787SOL     OW51154   4.788   6.933   6.926
15787SOL    HW151155   4.708   6.910   6.981
15787SOL    HW251156   4.871   6.907   6.975
15788SOL     OW51157   5.316   7.215   7.211
15788SOL    HW151158   5.343   7.249   7.121
15788SOL    HW251159   5.395   7.177   7.257
15789SOL     OW51160   4.835   6.781   6.686
15789SOL    HW151161   4.795   6.825   6.767
15789SOL    HW251162   4.794   6.818   6.603
15790SOL     OW51163   5.362   6.685   6.665
15790SOL    HW151164   5.367   6.766   6.724
15790SOL    HW251165   5.276   6.687   6.614
15791SOL     OW51166   4.639   5.675   6.988
15791SOL    HW151167   4.664   5.655   6.893
15791SOL    HW251168   4.711   5.731   7.030
15792SOL     OW51169   4.704   6.702   7.305
15792SOL    HW151170   4.605   6.708   7.315
15792SOL    HW251171   4.727   6.622   7.249
15793SOL     OW51172   4.429   6.636   5.954
15793SOL    HW151173   4.415   6.643   6.053
15793SOL    HW251174   4.513   6.585   5.936
15794SOL     OW51175   4.134   6.399   6.837
15794SOL    HW151176   4.220   6.411   6.887
15794SOL    HW251177   4.092   6.312   6.864
15795SOL     OW51178   4.998   5.972   6.848
15795SOL    HW151179   5.019   6.046   6.912
15795SOL    HW251180   4.909   5.989   6.805
15796SOL     OW51181   3.788   7.150   6.917
15796SOL    HW151182   3.742   7.232   6.883
15796SOL    HW251183   3.886   7.169   6.926
15797SOL     OW51184   4.091   6.686   6.087
15797SOL    HW151185   4.084   6.769   6.031
15797SOL    HW251186   4.095   6.606   6.027
15798SOL     OW51187   4.290   6.123   6.451
15798SOL    HW151188   4.302   6.189   6.377
15798SOL    HW251189   4.336   6.157   6.534
15799SOL     OW51190   4.976   6.934   5.974
15799SOL    HW151191   5.026   7.011   6.014
15799SOL    HW251192   4.881   6.936   6.006
15800SOL     OW51193   4.996   7.031   6.728
15800SOL    HW151194   5.043   7.044   6.815
15800SOL    HW251195   4.930   6.957   6.737
15801SOL     OW51196   5.306   6.225   6.058
15801SOL    HW151197   5.275   6.286   6.131
15801SOL    HW251198   5.356   6.277   5.989
15802SOL     OW51199   4.078   7.096   6.915
15802SOL    HW151200   4.057   7.052   6.828
15802SOL    HW251201   4.175   7.122   6.918
15803SOL     OW51202   4.126   6.337   7.184
15803SOL    HW151203   4.194   6.392   7.137
15803SOL    HW251204   4.166   6.249   7.211
15804SOL     OW51205   5.311   6.365   7.256
15804SOL    HW151206   5.219   6.403   7.251
15804SOL    HW251207   5.371   6.412   7.191
15805SOL     OW51208   4.737   5.691   7.356
15805SOL    HW151209   4.743   5.776   7.304
15805SOL    HW251210   4.769   5.615   7.299
15806SOL     OW51211   4.228   5.636   7.326
15806SOL    HW151212   4.186   5.579   7.256
15806SOL    HW251213   4.162   5.705   7.358
15807SOL     OW51214   4.297   6.456   6.615
15807SOL    HW151215   4.341   6.545   6.606
15807SOL    HW251216   4.234   6.456   6.692
15808SOL     OW51217   5.084   6.448   6.631
15808SOL    HW151218   5.009   6.448   6.565
15808SOL    HW251219   5.121   6.356   6.640
15809SOL     OW51220   4.933   6.111   5.861
15809SOL    HW151221   4.946   6.027   5.915
15809SOL    HW251222   4.904   6.185   5.921
15810SOL     OW51223   4.031   5.799   6.817
15810SOL    HW151224   4.008   5.836   6.907
15810SOL    HW251225   4.001   5.704   6.811
15811SOL     OW51226   3.761   6.896   6.868
15811SOL    HW151227   3.814   6.847   6.936
15811SOL    HW251228   3.783   6.994   6.873
15812SOL     OW51229   4.456   6.220   6.650
15812SOL    HW151230   4.515   6.194   6.574
15812SOL    HW251231   4.428   6.316   6.639
15813SOL     OW51232   5.452   6.521   7.440
15813SOL    HW151233   5.406   6.514   7.351
15813SOL    HW251234   5.390   6.565   7.506
15814SOL     OW51235   4.031   5.649   6.204
15814SOL    HW151236   4.020   5.743   6.237
15814SOL    HW251237   4.026   5.586   6.281
15815SOL     OW51238   5.346   5.953   5.960
15815SOL    HW151239   5.348   5.877   6.024
15815SOL    HW251240   5.298   6.030   6.000
15816SOL     OW51241   4.747   6.352   6.552
15816SOL    HW151242   4.762   6.373   6.648
15816SOL    HW251243   4.717   6.257   6.543
15817SOL     OW51244   4.704   7.159   7.286
15817SOL    HW151245   4.684   7.203   7.198
15817SOL    HW251246   4.743   7.068   7.270
15818SOL     OW51247   5.583   7.104   7.191
15818SOL    HW151248   5.597   7.131   7.096
15818SOL    HW251249   5.666   7.126   7.244
15819SOL     OW51250   4.074   6.484   7.390
15819SOL    HW151251   4.150   6.528   7.438
15819SOL    HW251252   4.109   6.437   7.308
15820SOL     OW51253   5.264   5.860   5.711
15820SOL    HW151254   5.203   5.785   5.734
15820SOL    HW251255   5.286   5.912   5.794
15821SOL     OW51256   5.027   6.424   5.628
15821SOL    HW151257   5.061   6.331   5.643
15821SOL    HW251258   5.045   6.451   5.533
15822SOL     OW51259   4.792   6.919   6.435
15822SOL    HW151260   4.799   6.835   6.380
15822SOL    HW251261   4.854   6.988   6.399
15823SOL     OW51262   4.043   6.396   6.535
15823SOL    HW151263   4.136   6.432   6.540
15823SOL    HW251264   4.037   6.311   6.587
15824SOL     OW51265   4.063   6.095   6.592
15824SOL    HW151266   4.011   6.012   6.575
15824SOL    HW251267   4.140   6.100   6.528
15825SOL     OW51268   4.862   5.966   7.264
15825SOL    HW151269   4.817   6.029   7.328
15825SOL    HW251270   4.955   5.997   7.247
15826SOL     OW51271   4.884   5.793   7.063
15826SOL    HW151272   4.884   5.857   7.140
15826SOL    HW251273   4.912   5.841   6.980
15827SOL     OW51274   3.732   6.912   5.786
15827SOL    HW151275   3.639   6.933   5.755
15827SOL    HW251276   3.742   6.813   5.799
15828SOL     OW51277   3.812   7.387   6.513
15828SOL    HW151278   3.770   7.301   6.486
15828SOL    HW251279   3.906   7.390   6.479
15829SOL     OW51280   4.228   7.154   6.496
15829SOL    HW151281   4.294   7.228   6.505
15829SOL    HW251282   4.272   7.075   6.454
15830SOL     OW51283   4.726   6.382   6.824
15830SOL    HW151284   4.767   6.350   6.910
15830SOL    HW251285   4.630   6.355   6.821
15831SOL     OW51286   3.764   6.130   6.700
15831SOL    HW151287   3.849   6.097   6.659
15831SOL    HW251288   3.777   6.145   6.798
15832SOL     OW51289   3.913   6.106   7.308
15832SOL    HW151290   3.972   6.066   7.238
15832SOL    HW251291   3.855   6.177   7.267
15833SOL     OW51292   5.093   6.536   7.246
15833SOL    HW151293   5.132   6.625   7.266
15833SOL    HW251294   5.103   6.516   7.149
15834SOL     OW51295   4.539   6.158   5.911
15834SOL    HW151296   4.546   6.069   5.865
15834SOL    HW251297   4.445   6.192   5.903
15835SOL     OW51298   5.381   6.190   6.792
15835SOL    HW151299   5.343   6.121   6.854
15835SOL    HW251300   5.463   6.154   6.748
15836SOL     OW51301   3.976   7.150   7.330
15836SOL    HW151302   3.946   7.207   7.406
15836SOL    HW251303   3.969   7.053   7.356
15837SOL     OW51304   4.395   6.050   6.855
15837SOL    HW151305   4.361   5.961   6.825
15837SOL    HW251306   4.421   6.104   6.775
15838SOL     OW51307   4.654   7.264   7.051
15838SOL    HW151308   4.630   7.246   6.956
15838SOL    HW251309   4.684   7.358   7.061
15839SOL     OW51310   4.197   6.086   5.777
15839SOL    HW151311   4.258   6.166   5.781
15839SOL    HW251312   4.102   6.117   5.784
15840SOL     OW51313   3.883   6.723   7.052
15840SOL    HW151314   3.905   6.662   7.128
15840SOL    HW251315   3.893   6.674   6.966
15841SOL     OW51316   5.071   6.645   6.820
15841SOL    HW151317   5.095   6.582   6.746
15841SOL    HW251318   4.981   6.685   6.802
15842SOL     OW51319   5.026   6.441   5.895
15842SOL    HW151320   4.940   6.410   5.937
15842SOL    HW251321   5.022   6.427   5.796
15843SOL     OW51322   5.483   7.333   6.740
15843SOL    HW151323   5.544   7.363   6.667
15843SOL    HW251324   5.445   7.244   6.718
15844SOL     OW51325   4.976   7.317   6.714
15844SOL    HW151326   5.060   7.322   6.660
15844SOL    HW251327   4.953   7.221   6.732
15845SOL     OW51328   3.807   6.844   6.608
15845SOL    HW151329   3.802   6.843   6.708
15845SOL    HW251330   3.724   6.803   6.570
15846SOL     OW51331   4.412   7.248   7.302
15846SOL    HW151332   4.356   7.329   7.311
15846SOL    HW251333   4.464   7.252   7.216
15847SOL     OW51334   5.450   5.721   6.109
15847SOL    HW151335   5.523   5.704   6.042
15847SOL    HW251336   5.419   5.634   6.147
15848SOL     OW51337   5.112   7.159   6.063
15848SOL    HW151338   5.179   7.171   5.989
15848SOL    HW251339   5.072   7.248   6.086
15849SOL     OW51340   3.854   7.380   7.437
15849SOL    HW151341   3.813   7.306   7.490
15849SOL    HW251342   3.918   7.431   7.495
15850SOL     OW51343   5.004   6.513   6.258
15850SOL    HW151344   5.064   6.432   6.260
15850SOL    HW251345   5.044   6.582   6.198
15851SOL     OW51346   4.554   6.859   7.008
15851SOL    HW151347   4.549   6.892   7.103
15851SOL    HW251348   4.468   6.878   6.962
15852SOL     OW51349   4.396   7.202   5.740
15852SOL    HW151350   4.405   7.212   5.641
15852SOL    HW251351   4.356   7.113   5.761
15853SOL     OW51352   5.374   7.306   6.980
15853SOL    HW151353   5.427   7.316   6.896
15853SOL    HW251354   5.347   7.396   7.014
15854SOL     OW51355   5.565   5.761   6.549
15854SOL    HW151356   5.604   5.676   6.513
15854SOL    HW251357   5.467   5.763   6.530
15855SOL     OW51358   3.987   5.912   6.306
15855SOL    HW151359   3.908   5.963   6.272
15855SOL    HW251360   3.978   5.897   6.404
15856SOL     OW51361   4.918   7.198   5.617
15856SOL    HW151362   4.924   7.105   5.654
15856SOL    HW251363   4.859   7.198   5.537
15857SOL     OW51364   4.546   6.588   6.958
15857SOL    HW151365   4.586   6.587   6.866
15857SOL    HW251366   4.556   6.680   6.998
15858SOL     OW51367   4.640   6.496   5.877
15858SOL    HW151368   4.703   6.534   5.809
15858SOL    HW251369   4.680   6.413   5.916
15859SOL     OW51370   5.228   7.193   5.630
15859SOL    HW151371   5.136   7.230   5.637
15859SOL    HW251372   5.266   7.213   5.540
15860SOL     OW51373   4.096   6.874   7.076
15860SOL    HW151374   4.083   6.967   7.042
15860SOL    HW251375   4.012   6.822   7.063
15861SOL     OW51376   5.338   6.878   6.875
15861SOL    HW151377   5.398   6.881   6.955
15861SOL    HW251378   5.263   6.942   6.888
15862SOL     OW51379   4.763   6.684   6.282
15862SOL    HW151380   4.693   6.637   6.336
15862SOL    HW251381   4.822   6.616   6.239
15863SOL     OW51382   4.738   5.822   6.557
15863SOL    HW151383   4.730   5.786   6.464
15863SOL    HW251384   4.736   5.746   6.622
15864SOL     OW51385   4.314   7.073   6.077
15864SOL    HW151386   4.356   7.015   6.007
15864SOL    HW251387   4.270   7.152   6.033
15865SOL     OW51388   5.433   5.971   6.967
15865SOL    HW151389   5.506   6.040   6.971
15865SOL    HW251390   5.461   5.896   6.908
15866SOL     OW51391   3.979   6.934   5.876
15866SOL    HW151392   3.883   6.935   5.849
15866SOL    HW251393   3.991   6.987   5.960
15867SOL     OW51394   3.829   6.599   7.312
15867SOL    HW151395   3.752   6.566   7.366
15867SOL    HW251396   3.914   6.569   7.354
15868SOL     OW51397   4.396   5.789   7.075
15868SOL    HW151398   4.486   5.773   7.035
15868SOL    HW251399   4.404   5.794   7.174
15869SOL     OW51400   3.799   5.931   5.619
15869SOL    HW151401   3.707   5.903   5.590
15869SOL    HW251402   3.830   6.008   5.563
15870SOL     OW51403   5.164   6.442   6.984
15870SOL    HW151404   5.107   6.494   6.921
15870SOL    HW251405   5.260   6.454   6.960
15871SOL     OW51406   3.796   5.752   5.904
15871SOL    HW151407   3.779   5.835   5.850
15871SOL    HW251408   3.886   5.715   5.882
15872SOL     OW51409   4.907   6.921   5.705
15872SOL    HW151410   4.808   6.910   5.707
15872SOL    HW251411   4.941   6.936   5.798
15873SOL     OW51412   4.337   6.428   7.017
15873SOL    HW151413   4.393   6.509   7.000
15873SOL    HW251414   4.396   6.348   7.020
15874SOL     OW51415   5.217   7.353   6.545
15874SOL    HW151416   5.250   7.417   6.476
15874SOL    HW251417   5.283   7.347   6.620
15875SOL     OW51418   4.440   6.151   7.294
15875SOL    HW151419   4.459   6.216   7.368
15875SOL    HW251420   4.500   6.071   7.303
15876SOL     OW51421   5.174   6.806   7.219
15876SOL    HW151422   5.165   6.796   7.318
15876SOL    HW251423   5.270   6.799   7.193
15877SOL     OW51424   4.114   7.327   7.146
15877SOL    HW151425   4.023   7.368   7.144
15877SOL    HW251426   4.107   7.233   7.178
15878SOL     OW51427   5.398   6.469   6.840
15878SOL    HW151428   5.371   6.380   6.803
15878SOL    HW251429   5.399   6.537   6.767
15879SOL     OW51430   4.949   5.911   6.035
15879SOL    HW151431   5.014   5.837   6.024
15879SOL    HW251432   4.969   5.961   6.119
15880SOL     OW51433   4.318   6.331   6.238
15880SOL    HW151434   4.368   6.416   6.219
15880SOL    HW251435   4.230   6.333   6.190
15881SOL     OW51436   5.501   5.928   7.228
15881SOL    HW151437   5.484   5.959   7.134
15881SOL    HW251438   5.417   5.891   7.266
15882SOL     OW51439   5.454   6.520   7.103
15882SOL    HW151440   5.492   6.611   7.118
15882SOL    HW251441   5.446   6.503   7.004
15883SOL     OW51442   4.583   6.960   5.602
15883SOL    HW151443   4.537   6.975   5.690
15883SOL    HW251444   4.627   7.045   5.572
15884SOL     OW51445   4.385   7.376   6.539
15884SOL    HW151446   4.339   7.464   6.526
15884SOL    HW251447   4.484   7.388   6.532
15885SOL     OW51448   4.583   6.542   6.447
15885SOL    HW151449   4.637   6.473   6.495
15885SOL    HW251450   4.551   6.611   6.513
15886SOL     OW51451   4.807   6.570   5.673
15886SOL    HW151452   4.784   6.623   5.591
15886SOL    HW251453   4.888   6.514   5.654
15887SOL     OW51454   5.585   7.155   6.437
15887SOL    HW151455   5.514   7.143   6.367
15887SOL    HW251456   5.586   7.076   6.497
15888SOL     OW51457   3.945   6.900   7.430
15888SOL    HW151458   3.880   6.827   7.409
15888SOL    HW251459   3.949   6.914   7.528
15889SOL     OW51460   3.803   6.826   6.239
15889SOL    HW151461   3.802   6.779   6.327
15889SOL    HW251462   3.885   6.798   6.188
15890SOL     OW51463   4.396   6.977   7.210
15890SOL    HW151464   4.318   6.927   7.248
15890SOL    HW251465   4.393   7.072   7.241
15891SOL     OW51466   5.548   5.778   6.813
15891SOL    HW151467   5.544   5.688   6.857
15891SOL    HW251468   5.551   5.767   6.714
15892SOL     OW51469   4.152   6.010   6.106
15892SOL    HW151470   4.182   5.938   6.044
15892SOL    HW251471   4.113   5.970   6.189
15893SOL     OW51472   5.429   7.073   6.690
15893SOL    HW151473   5.336   7.048   6.663
15893SOL    HW251474   5.455   7.023   6.772
15894SOL     OW51475   4.041   6.133   6.866
15894SOL    HW151476   4.079   6.074   6.938
15894SOL    HW251477   4.081   6.107   6.778
15895SOL     OW51478   4.536   7.172   6.273
15895SOL    HW151479   4.568   7.182   6.179
15895SOL    HW251480   4.457   7.110   6.275
15896SOL     OW51481   5.148   5.800   6.698
15896SOL    HW151482   5.200   5.735   6.753
15896SOL    HW251483   5.099   5.863   6.759
15897SOL     OW51484   4.725   5.620   6.740
15897SOL    HW151485   4.662   5.548   6.709
15897SOL    HW251486   4.818   5.584   6.740
15898SOL     OW51487   4.494   6.916   5.887
15898SOL    HW151488   4.448   6.829   5.904
15898SOL    HW251489   4.585   6.913   5.928
15899SOL     OW51490   4.342   7.153   6.870
15899SOL    HW151491   4.337   7.235   6.927
15899SOL    HW251492   4.431   7.150   6.825
15900SOL     OW51493   5.076   5.638   5.754
15900SOL    HW151494   5.111   5.597   5.670
15900SOL    HW251495   4.986   5.600   5.774
15901SOL     OW51496   5.024   6.039   6.277
15901SOL    HW151497   4.965   6.119   6.281
15901SOL    HW251498   5.039   6.004   6.370
15902SOL     OW51499   5.317   5.807   6.468
15902SOL    HW151500   5.233   5.806   6.522
15902SOL    HW251501   5.319   5.890   6.412
15903SOL     OW51502   3.763   6.663   5.886
15903SOL    HW151503   3.862   6.652   5.877
15903SOL    HW251504   3.723   6.577   5.918
15904SOL     OW51505   4.599   7.232   5.923
15904SOL    HW151506   4.522   7.197   5.869
15904SOL    HW251507   4.567   7.303   5.985
15905SOL     OW51508   3.954   6.214   7.561
15905SOL    HW151509   3.861   6.212   7.598
15905SOL    HW251510   3.955   6.175   7.469
15906SOL     OW51511   3.949   5.861   8.444
15906SOL    HW151512   3.984   5.844   8.536
15906SOL    HW251513   3.861   5.816   8.432
15907SOL     OW51514   3.743   5.954   8.095
15907SOL    HW151515   3.661   5.997   8.134
15907SOL    HW251516   3.715   5.881   8.032
15908SOL     OW51517   4.293   6.861   8.613
15908SOL    HW151518   4.200   6.854   8.576
15908SOL    HW251519   4.304   6.950   8.657
15909SOL     OW51520   5.279   7.097   8.151
15909SOL    HW151521   5.222   7.081   8.232
15909SOL    HW251522   5.220   7.107   8.071
15910SOL     OW51523   4.859   6.289   8.165
15910SOL    HW151524   4.916   6.367   8.140
15910SOL    HW251525   4.799   6.315   8.241
15911SOL     OW51526   5.479   6.193   7.679
15911SOL    HW151527   5.467   6.180   7.580
15911SOL    HW251528   5.449   6.112   7.728
15912SOL     OW51529   4.492   6.730   8.471
15912SOL    HW151530   4.414   6.747   8.531
15912SOL    HW251531   4.526   6.817   8.435
15913SOL     OW51532   4.574   6.384   9.271
15913SOL    HW151533   4.570   6.460   9.336
15913SOL    HW251534   4.596   6.420   9.180
15914SOL     OW51535   4.409   6.598   8.113
15914SOL    HW151536   4.478   6.582   8.183
15914SOL    HW251537   4.336   6.655   8.151
15915SOL     OW51538   4.410   6.747   9.251
15915SOL    HW151539   4.470   6.826   9.265
15915SOL    HW251540   4.324   6.778   9.210
15916SOL     OW51541   4.059   7.021   8.509
15916SOL    HW151542   3.981   6.990   8.456
15916SOL    HW251543   4.117   7.079   8.452
15917SOL     OW51544   5.184   7.091   8.787
15917SOL    HW151545   5.208   7.185   8.813
15917SOL    HW251546   5.168   7.037   8.869
15918SOL     OW51547   4.162   5.978   8.947
15918SOL    HW151548   4.244   5.922   8.956
15918SOL    HW251549   4.081   5.920   8.951
15919SOL     OW51550   5.327   6.033   8.185
15919SOL    HW151551   5.253   6.079   8.135
15919SOL    HW251552   5.378   6.101   8.238
15920SOL     OW51553   3.955   7.299   7.931
15920SOL    HW151554   3.989   7.376   7.985
15920SOL    HW251555   3.999   7.299   7.841
15921SOL     OW51556   4.851   6.927   9.138
15921SOL    HW151557   4.898   6.927   9.226
15921SOL    HW251558   4.803   6.840   9.127
15922SOL     OW51559   3.954   7.020   7.986
15922SOL    HW151560   3.928   7.116   7.986
15922SOL    HW251561   3.883   6.966   8.031
15923SOL     OW51562   3.964   6.677   8.334
15923SOL    HW151563   3.978   6.593   8.386
15923SOL    HW251564   3.909   6.741   8.389
15924SOL     OW51565   4.344   7.372   8.887
15924SOL    HW151566   4.252   7.355   8.922
15924SOL    HW251567   4.372   7.464   8.913
15925SOL     OW51568   4.330   6.550   7.571
15925SOL    HW151569   4.337   6.634   7.517
15925SOL    HW251570   4.376   6.563   7.659
15926SOL     OW51571   5.318   5.700   8.928
15926SOL    HW151572   5.300   5.767   8.856
15926SOL    HW251573   5.315   5.746   9.017
15927SOL     OW51574   3.846   6.229   8.011
15927SOL    HW151575   3.801   6.141   8.028
15927SOL    HW251576   3.845   6.283   8.095
15928SOL     OW51577   5.566   7.353   7.807
15928SOL    HW151578   5.620   7.324   7.887
15928SOL    HW251579   5.596   7.443   7.778
15929SOL     OW51580   3.751   7.182   7.565
15929SOL    HW151581   3.732   7.086   7.586
15929SOL    HW251582   3.718   7.240   7.640
15930SOL     OW51583   5.413   6.508   8.060
15930SOL    HW151584   5.508   6.479   8.068
15930SOL    HW251585   5.405   6.573   7.985
15931SOL     OW51586   5.365   6.694   7.880
15931SOL    HW151587   5.451   6.696   7.828
15931SOL    HW251588   5.379   6.741   7.968
15932SOL     OW51589   3.837   6.323   9.045
15932SOL    HW151590   3.925   6.310   9.090
15932SOL    HW251591   3.824   6.420   9.023
15933SOL     OW51592   4.337   6.951   8.174
15933SOL    HW151593   4.288   6.864   8.183
15933SOL    HW251594   4.314   6.994   8.087
15934SOL     OW51595   5.017   6.814   8.871
15934SOL    HW151596   5.054   6.741   8.813
15934SOL    HW251597   5.069   6.819   8.956
15935SOL     OW51598   4.533   5.590   7.950
15935SOL    HW151599   4.573   5.681   7.941
15935SOL    HW251600   4.433   5.598   7.956
15936SOL     OW51601   3.921   6.562   8.712
15936SOL    HW151602   4.010   6.517   8.698
15936SOL    HW251603   3.848   6.497   8.693
15937SOL     OW51604   5.249   6.585   7.638
15937SOL    HW151605   5.186   6.509   7.651
15937SOL    HW251606   5.297   6.603   7.724
15938SOL     OW51607   4.911   7.378   9.064
15938SOL    HW151608   4.935   7.438   8.988
15938SOL    HW251609   4.918   7.283   9.034
15939SOL     OW51610   4.041   5.837   9.249
15939SOL    HW151611   4.112   5.908   9.255
15939SOL    HW251612   3.953   5.876   9.277
15940SOL     OW51613   5.190   7.003   8.401
15940SOL    HW151614   5.131   7.009   8.481
15940SOL    HW251615   5.175   6.915   8.355
15941SOL     OW51616   5.391   7.300   8.020
15941SOL    HW151617   5.350   7.277   7.932
15941SOL    HW251618   5.373   7.226   8.085
15942SOL     OW51619   4.322   6.315   7.718
15942SOL    HW151620   4.346   6.384   7.650
15942SOL    HW251621   4.244   6.348   7.772
15943SOL     OW51622   5.005   5.931   8.392
15943SOL    HW151623   4.919   5.881   8.379
15943SOL    HW251624   5.067   5.877   8.448
15944SOL     OW51625   5.300   7.248   7.755
15944SOL    HW151626   5.389   7.294   7.758
15944SOL    HW251627   5.279   7.224   7.660
15945SOL     OW51628   4.531   6.191   8.913
15945SOL    HW151629   4.484   6.188   9.002
15945SOL    HW251630   4.480   6.136   8.847
15946SOL     OW51631   5.118   6.055   9.122
15946SOL    HW151632   5.098   6.098   9.210
15946SOL    HW251633   5.196   5.993   9.131
15947SOL     OW51634   4.697   6.476   9.020
15947SOL    HW151635   4.743   6.392   8.991
15947SOL    HW251636   4.641   6.510   8.945
15948SOL     OW51637   4.715   5.996   8.690
15948SOL    HW151638   4.638   6.030   8.744
15948SOL    HW251639   4.681   5.945   8.611
15949SOL     OW51640   4.765   6.287   7.877
15949SOL    HW151641   4.791   6.283   7.973
15949SOL    HW251642   4.680   6.236   7.863
15950SOL     OW51643   3.800   6.397   8.237
15950SOL    HW151644   3.899   6.385   8.246
15950SOL    HW251645   3.776   6.492   8.258
15951SOL     OW51646   3.854   7.407   9.019
15951SOL    HW151647   3.844   7.392   9.118
15951SOL    HW251648   3.768   7.443   8.983
15952SOL     OW51649   4.589   5.934   7.643
15952SOL    HW151650   4.648   5.997   7.594
15952SOL    HW251651   4.608   5.840   7.614
15953SOL     OW51652   5.443   6.171   9.279
15953SOL    HW151653   5.417   6.260   9.243
15953SOL    HW251654   5.441   6.103   9.206
15954SOL     OW51655   5.086   6.730   7.993
15954SOL    HW151656   5.169   6.701   7.945
15954SOL    HW251657   5.037   6.797   7.937
15955SOL     OW51658   4.274   5.782   8.333
15955SOL    HW151659   4.269   5.777   8.433
15955SOL    HW251660   4.276   5.878   8.304
15956SOL     OW51661   4.732   7.042   7.925
15956SOL    HW151662   4.686   7.114   7.873
15956SOL    HW251663   4.728   7.062   8.023
15957SOL     OW51664   4.075   7.387   8.301
15957SOL    HW151665   4.125   7.301   8.307
15957SOL    HW251666   4.140   7.464   8.298
15958SOL     OW51667   5.519   6.652   8.321
15958SOL    HW151668   5.457   6.637   8.245
15958SOL    HW251669   5.467   6.663   8.406
15959SOL     OW51670   4.951   7.136   8.954
15959SOL    HW151671   4.957   7.059   9.018
15959SOL    HW251672   4.899   7.110   8.874
15960SOL     OW51673   4.045   6.529   7.690
15960SOL    HW151674   4.127   6.568   7.648
15960SOL    HW251675   4.018   6.447   7.641
15961SOL     OW51676   5.182   6.321   8.176
15961SOL    HW151677   5.177   6.256   8.251
15961SOL    HW251678   5.262   6.380   8.189
15962SOL     OW51679   4.185   6.852   9.175
15962SOL    HW151680   4.135   6.853   9.089
15962SOL    HW251681   4.122   6.834   9.251
15963SOL     OW51682   4.835   7.362   7.685
15963SOL    HW151683   4.775   7.300   7.735
15963SOL    HW251684   4.866   7.318   7.600
15964SOL     OW51685   3.926   5.871   8.946
15964SOL    HW151686   3.846   5.931   8.933
15964SOL    HW251687   3.916   5.822   9.032
15965SOL     OW51688   5.356   6.963   7.529
15965SOL    HW151689   5.324   7.057   7.519
15965SOL    HW251690   5.280   6.900   7.517
15966SOL     OW51691   4.188   7.329   7.771
15966SOL    HW151692   4.221   7.368   7.857
15966SOL    HW251693   4.264   7.322   7.706
15967SOL     OW51694   5.124   5.693   7.874
15967SOL    HW151695   5.100   5.656   7.784
15967SOL    HW251696   5.223   5.709   7.878
15968SOL     OW51697   3.973   7.371   8.689
15968SOL    HW151698   4.030   7.306   8.739
15968SOL    HW251699   3.957   7.338   8.596
15969SOL     OW51700   4.664   7.284   8.352
15969SOL    HW151701   4.744   7.227   8.373
15969SOL    HW251702   4.615   7.244   8.275
15970SOL     OW51703   4.106   6.286   7.928
15970SOL    HW151704   4.151   6.196   7.925
15970SOL    HW251705   4.012   6.275   7.961
15971SOL     OW51706   5.271   5.808   9.177
15971SOL    HW151707   5.266   5.845   9.269
15971SOL    HW251708   5.199   5.739   9.165
15972SOL     OW51709   4.338   5.708   7.565
15972SOL    HW151710   4.436   5.686   7.572
15972SOL    HW251711   4.307   5.691   7.472
15973SOL     OW51712   4.505   5.850   9.197
15973SOL    HW151713   4.572   5.789   9.240
15973SOL    HW251714   4.432   5.869   9.262
15974SOL     OW51715   4.612   7.100   8.643
15974SOL    HW151716   4.589   7.075   8.549
15974SOL    HW251717   4.673   7.031   8.682
15975SOL     OW51718   5.075   6.176   8.881
15975SOL    HW151719   5.103   6.133   8.966
15975SOL    HW251720   5.100   6.272   8.882
15976SOL     OW51721   4.527   6.988   8.372
15976SOL    HW151722   4.617   7.002   8.330
15976SOL    HW251723   4.456   6.990   8.301
15977SOL     OW51724   4.646   6.089   8.347
15977SOL    HW151725   4.621   6.080   8.251
15977SOL    HW251726   4.694   6.007   8.378
15978SOL     OW51727   4.263   5.650   7.960
15978SOL    HW151728   4.182   5.651   8.018
15978SOL    HW251729   4.266   5.733   7.905
15979SOL     OW51730   5.158   6.774   7.489
15979SOL    HW151731   5.190   6.698   7.546
15979SOL    HW251732   5.066   6.801   7.519
15980SOL     OW51733   4.021   5.621   7.619
15980SOL    HW151734   4.070   5.705   7.598
15980SOL    HW251735   4.083   5.556   7.664
15981SOL     OW51736   4.659   5.822   7.928
15981SOL    HW151737   4.611   5.863   7.850
15981SOL    HW251738   4.758   5.820   7.909
15982SOL     OW51739   4.800   6.269   8.912
15982SOL    HW151740   4.720   6.208   8.915
15982SOL    HW251741   4.881   6.216   8.888
15983SOL     OW51742   4.951   7.156   8.241
15983SOL    HW151743   4.972   7.230   8.176
15983SOL    HW251744   5.019   7.156   8.314
15984SOL     OW51745   4.183   6.738   8.189
15984SOL    HW151746   4.112   6.711   8.254
15984SOL    HW251747   4.157   6.710   8.096
15985SOL     OW51748   4.995   7.383   8.039
15985SOL    HW151749   5.039   7.447   7.975
15985SOL    HW251750   4.945   7.435   8.109
15986SOL     OW51751   4.756   6.135   7.464
15986SOL    HW151752   4.715   6.217   7.425
15986SOL    HW251753   4.820   6.161   7.537
15987SOL     OW51754   3.802   6.142   8.834
15987SOL    HW151755   3.894   6.141   8.793
15987SOL    HW251756   3.796   6.216   8.901
15988SOL     OW51757   4.285   5.808   8.595
15988SOL    HW151758   4.323   5.724   8.632
15988SOL    HW251759   4.197   5.827   8.639
15989SOL     OW51760   4.590   6.040   8.090
15989SOL    HW151761   4.558   6.112   8.028
15989SOL    HW251762   4.614   5.959   8.037
15990SOL     OW51763   4.741   5.625   8.201
15990SOL    HW151764   4.669   5.630   8.132
15990SOL    HW251765   4.717   5.556   8.270
15991SOL     OW51766   5.153   6.759   8.315
15991SOL    HW151767   5.098   6.675   8.308
15991SOL    HW251768   5.179   6.788   8.223
15992SOL     OW51769   5.190   6.176   8.440
15992SOL    HW151770   5.160   6.081   8.447
15992SOL    HW251771   5.263   6.192   8.506
15993SOL     OW51772   5.581   6.419   7.825
15993SOL    HW151773   5.623   6.355   7.889
15993SOL    HW251774   5.543   6.368   7.747
15994SOL     OW51775   4.212   6.971   7.622
15994SOL    HW151776   4.125   6.956   7.669
15994SOL    HW251777   4.195   6.997   7.527
15995SOL     OW51778   5.388   6.866   8.105
15995SOL    HW151779   5.487   6.874   8.119
15995SOL    HW251780   5.343   6.950   8.136
15996SOL     OW51781   5.114   6.161   7.526
15996SOL    HW151782   5.060   6.140   7.607
15996SOL    HW251783   5.205   6.120   7.535
15997SOL     OW51784   4.251   5.842   7.776
15997SOL    HW151785   4.278   5.783   7.701
15997SOL    HW251786   4.251   5.937   7.745
15998SOL     OW51787   5.478   6.809   9.036
15998SOL    HW151788   5.569   6.770   9.023
15998SOL    HW251789   5.486   6.905   9.060
15999SOL     OW51790   4.788   6.933   8.788
15999SOL    HW151791   4.708   6.910   8.843
15999SOL    HW251792   4.871   6.907   8.837
16000SOL     OW51793   5.316   7.215   9.073
16000SOL    HW151794   5.343   7.249   8.983
16000SOL    HW251795   5.395   7.177   9.119
16001SOL     OW51796   4.835   6.781   8.548
16001SOL    HW151797   4.795   6.825   8.629
16001SOL    HW251798   4.794   6.818   8.465
16002SOL     OW51799   5.362   6.685   8.527
16002SOL    HW151800   5.367   6.766   8.586
16002SOL    HW251801   5.276   6.687   8.476
16003SOL     OW51802   4.639   5.675   8.850
16003SOL    HW151803   4.664   5.655   8.755
16003SOL    HW251804   4.711   5.731   8.892
16004SOL     OW51805   4.704   6.702   9.167
16004SOL    HW151806   4.605   6.708   9.177
16004SOL    HW251807   4.727   6.622   9.111
16005SOL     OW51808   4.429   6.636   7.816
16005SOL    HW151809   4.415   6.643   7.915
16005SOL    HW251810   4.513   6.585   7.798
16006SOL     OW51811   4.134   6.399   8.699
16006SOL    HW151812   4.220   6.411   8.749
16006SOL    HW251813   4.092   6.312   8.726
16007SOL     OW51814   4.998   5.972   8.710
16007SOL    HW151815   5.019   6.046   8.774
16007SOL    HW251816   4.909   5.989   8.667
16008SOL     OW51817   3.788   7.150   8.779
16008SOL    HW151818   3.742   7.232   8.745
16008SOL    HW251819   3.886   7.169   8.788
16009SOL     OW51820   4.091   6.686   7.949
16009SOL    HW151821   4.084   6.769   7.893
16009SOL    HW251822   4.095   6.606   7.889
16010SOL     OW51823   4.290   6.123   8.313
16010SOL    HW151824   4.302   6.189   8.239
16010SOL    HW251825   4.336   6.157   8.396
16011SOL     OW51826   4.976   6.934   7.836
16011SOL    HW151827   5.026   7.011   7.876
16011SOL    HW251828   4.881   6.936   7.868
16012SOL     OW51829   4.996   7.031   8.590
16012SOL    HW151830   5.043   7.044   8.677
16012SOL    HW251831   4.930   6.957   8.599
16013SOL     OW51832   5.306   6.225   7.920
16013SOL    HW151833   5.275   6.286   7.993
16013SOL    HW251834   5.356   6.277   7.851
16014SOL     OW51835   4.078   7.096   8.777
16014SOL    HW151836   4.057   7.052   8.690
16014SOL    HW251837   4.175   7.122   8.780
16015SOL     OW51838   4.126   6.337   9.046
16015SOL    HW151839   4.194   6.392   8.999
16015SOL    HW251840   4.166   6.249   9.073
16016SOL     OW51841   5.311   6.365   9.118
16016SOL    HW151842   5.219   6.403   9.113
16016SOL    HW251843   5.371   6.412   9.053
16017SOL     OW51844   4.737   5.691   9.218
16017SOL    HW151845   4.743   5.776   9.166
16017SOL    HW251846   4.769   5.615   9.161
16018SOL     OW51847   4.228   5.636   9.188
16018SOL    HW151848   4.186   5.579   9.118
16018SOL    HW251849   4.162   5.705   9.220
16019SOL     OW51850   4.297   6.456   8.477
16019SOL    HW151851   4.341   6.545   8.468
16019SOL    HW251852   4.234   6.456   8.554
16020SOL     OW51853   5.084   6.448   8.493
16020SOL    HW151854   5.009   6.448   8.427
16020SOL    HW251855   5.121   6.356   8.502
16021SOL     OW51856   4.933   6.111   7.723
16021SOL    HW151857   4.946   6.027   7.777
16021SOL    HW251858   4.904   6.185   7.783
16022SOL     OW51859   4.031   5.799   8.679
16022SOL    HW151860   4.008   5.836   8.769
16022SOL    HW251861   4.001   5.704   8.673
16023SOL     OW51862   3.761   6.896   8.730
16023SOL    HW151863   3.814   6.847   8.798
16023SOL    HW251864   3.783   6.994   8.735
16024SOL     OW51865   4.456   6.220   8.512
16024SOL    HW151866   4.515   6.194   8.436
16024SOL    HW251867   4.428   6.316   8.501
16025SOL     OW51868   5.452   6.521   9.302
16025SOL    HW151869   5.406   6.514   9.213
16025SOL    HW251870   5.390   6.565   9.368
16026SOL     OW51871   4.031   5.649   8.066
16026SOL    HW151872   4.020   5.743   8.099
16026SOL    HW251873   4.026   5.586   8.143
16027SOL     OW51874   5.346   5.953   7.822
16027SOL    HW151875   5.348   5.877   7.886
16027SOL    HW251876   5.298   6.030   7.862
16028SOL     OW51877   4.747   6.352   8.414
16028SOL    HW151878   4.762   6.373   8.510
16028SOL    HW251879   4.717   6.257   8.405
16029SOL     OW51880   4.704   7.159   9.148
16029SOL    HW151881   4.684   7.203   9.060
16029SOL    HW251882   4.743   7.068   9.132
16030SOL     OW51883   5.583   7.104   9.053
16030SOL    HW151884   5.597   7.131   8.958
16030SOL    HW251885   5.666   7.126   9.106
16031SOL     OW51886   4.074   6.484   9.252
16031SOL    HW151887   4.150   6.528   9.300
16031SOL    HW251888   4.109   6.437   9.170
16032SOL     OW51889   5.264   5.860   7.573
16032SOL    HW151890   5.203   5.785   7.596
16032SOL    HW251891   5.286   5.912   7.656
16033SOL     OW51892   5.027   6.424   7.490
16033SOL    HW151893   5.061   6.331   7.505
16033SOL    HW251894   5.045   6.451   7.395
16034SOL     OW51895   4.792   6.919   8.297
16034SOL    HW151896   4.799   6.835   8.242
16034SOL    HW251897   4.854   6.988   8.261
16035SOL     OW51898   4.043   6.396   8.397
16035SOL    HW151899   4.136   6.432   8.402
16035SOL    HW251900   4.037   6.311   8.449
16036SOL     OW51901   4.063   6.095   8.454
16036SOL    HW151902   4.011   6.012   8.437
16036SOL    HW251903   4.140   6.100   8.390
16037SOL     OW51904   4.862   5.966   9.126
16037SOL    HW151905   4.817   6.029   9.190
16037SOL    HW251906   4.955   5.997   9.109
16038SOL     OW51907   4.884   5.793   8.925
16038SOL    HW151908   4.884   5.857   9.002
16038SOL    HW251909   4.912   5.841   8.842
16039SOL     OW51910   3.732   6.912   7.648
16039SOL    HW151911   3.639   6.933   7.617
16039SOL    HW251912   3.742   6.813   7.661
16040SOL     OW51913   3.812   7.387   8.375
16040SOL    HW151914   3.770   7.301   8.348
16040SOL    HW251915   3.906   7.390   8.341
16041SOL     OW51916   4.228   7.154   8.358
16041SOL    HW151917   4.294   7.228   8.367
16041SOL    HW251918   4.272   7.075   8.316
16042SOL     OW51919   4.726   6.382   8.686
16042SOL    HW151920   4.767   6.350   8.772
16042SOL    HW251921   4.630   6.355   8.683
16043SOL     OW51922   3.764   6.130   8.562
16043SOL    HW151923   3.849   6.097   8.521
16043SOL    HW251924   3.777   6.145   8.660
16044SOL     OW51925   3.913   6.106   9.170
16044SOL    HW151926   3.972   6.066   9.100
16044SOL    HW251927   3.855   6.177   9.129
16045SOL     OW51928   5.093   6.536   9.108
16045SOL    HW151929   5.132   6.625   9.128
16045SOL    HW251930   5.103   6.516   9.011
16046SOL     OW51931   4.539   6.158   7.773
16046SOL    HW151932   4.546   6.069   7.727
16046SOL    HW251933   4.445   6.192   7.765
16047SOL     OW51934   5.381   6.190   8.654
16047SOL    HW151935   5.343   6.121   8.716
16047SOL    HW251936   5.463   6.154   8.610
16048SOL     OW51937   3.976   7.150   9.192
16048SOL    HW151938   3.946   7.207   9.268
16048SOL    HW251939   3.969   7.053   9.218
16049SOL     OW51940   4.395   6.050   8.717
16049SOL    HW151941   4.361   5.961   8.687
16049SOL    HW251942   4.421   6.104   8.637
16050SOL     OW51943   4.654   7.264   8.913
16050SOL    HW151944   4.630   7.246   8.818
16050SOL    HW251945   4.684   7.358   8.923
16051SOL     OW51946   4.197   6.086   7.639
16051SOL    HW151947   4.258   6.166   7.643
16051SOL    HW251948   4.102   6.117   7.646
16052SOL     OW51949   3.883   6.723   8.914
16052SOL    HW151950   3.905   6.662   8.990
16052SOL    HW251951   3.893   6.674   8.828
16053SOL     OW51952   5.071   6.645   8.682
16053SOL    HW151953   5.095   6.582   8.608
16053SOL    HW251954   4.981   6.685   8.664
16054SOL     OW51955   5.026   6.441   7.757
16054SOL    HW151956   4.940   6.410   7.799
16054SOL    HW251957   5.022   6.427   7.658
16055SOL     OW51958   5.483   7.333   8.602
16055SOL    HW151959   5.544   7.363   8.529
16055SOL    HW251960   5.445   7.244   8.580
16056SOL     OW51961   4.976   7.317   8.576
16056SOL    HW151962   5.060   7.322   8.522
16056SOL    HW251963   4.953   7.221   8.594
16057SOL     OW51964   3.807   6.844   8.470
16057SOL    HW151965   3.802   6.843   8.570
16057SOL    HW251966   3.724   6.803   8.432
16058SOL     OW51967   4.412   7.248   9.164
16058SOL    HW151968   4.356   7.329   9.173
16058SOL    HW251969   4.464   7.252   9.078
16059SOL     OW51970   5.450   5.721   7.971
16059SOL    HW151971   5.523   5.704   7.904
16059SOL    HW251972   5.419   5.634   8.009
16060SOL     OW51973   5.112   7.159   7.925
16060SOL    HW151974   5.179   7.171   7.851
16060SOL    HW251975   5.072   7.248   7.948
16061SOL     OW51976   3.854   7.380   9.299
16061SOL    HW151977   3.813   7.306   9.352
16061SOL    HW251978   3.918   7.431   9.357
16062SOL     OW51979   5.004   6.513   8.120
16062SOL    HW151980   5.064   6.432   8.122
16062SOL    HW251981   5.044   6.582   8.060
16063SOL     OW51982   4.554   6.859   8.870
16063SOL    HW151983   4.549   6.892   8.965
16063SOL    HW251984   4.468   6.878   8.824
16064SOL     OW51985   4.396   7.202   7.602
16064SOL    HW151986   4.405   7.212   7.503
16064SOL    HW251987   4.356   7.113   7.623
16065SOL     OW51988   5.374   7.306   8.842
16065SOL    HW151989   5.427   7.316   8.758
16065SOL    HW251990   5.347   7.396   8.876
16066SOL     OW51991   5.565   5.761   8.411
16066SOL    HW151992   5.604   5.676   8.375
16066SOL    HW251993   5.467   5.763   8.392
16067SOL     OW51994   3.987   5.912   8.168
16067SOL    HW151995   3.908   5.963   8.134
16067SOL    HW251996   3.978   5.897   8.266
16068SOL     OW51997   4.918   7.198   7.479
16068SOL    HW151998   4.924   7.105   7.516
16068SOL    HW251999   4.859   7.198   7.399
16069SOL     OW52000   4.546   6.588   8.820
16069SOL    HW152001   4.586   6.587   8.728
16069SOL    HW252002   4.556   6.680   8.860
16070SOL     OW52003   4.640   6.496   7.739
16070SOL    HW152004   4.703   6.534   7.671
16070SOL    HW252005   4.680   6.413   7.778
16071SOL     OW52006   5.228   7.193   7.492
16071SOL    HW152007   5.136   7.230   7.499
16071SOL    HW252008   5.266   7.213   7.402
16072SOL     OW52009   4.096   6.874   8.938
16072SOL    HW152010   4.083   6.967   8.904
16072SOL    HW252011   4.012   6.822   8.925
16073SOL     OW52012   5.338   6.878   8.737
16073SOL    HW152013   5.398   6.881   8.817
16073SOL    HW252014   5.263   6.942   8.750
16074SOL     OW52015   4.763   6.684   8.144
16074SOL    HW152016   4.693   6.637   8.198
16074SOL    HW252017   4.822   6.616   8.101
16075SOL     OW52018   4.738   5.822   8.419
16075SOL    HW152019   4.730   5.786   8.326
16075SOL    HW252020   4.736   5.746   8.484
16076SOL     OW52021   4.314   7.073   7.939
16076SOL    HW152022   4.356   7.015   7.869
16076SOL    HW252023   4.270   7.152   7.895
16077SOL     OW52024   5.433   5.971   8.829
16077SOL    HW152025   5.506   6.040   8.833
16077SOL    HW252026   5.461   5.896   8.770
16078SOL     OW52027   3.979   6.934   7.738
16078SOL    HW152028   3.883   6.935   7.711
16078SOL    HW252029   3.991   6.987   7.822
16079SOL     OW52030   3.829   6.599   9.174
16079SOL    HW152031   3.752   6.566   9.228
16079SOL    HW252032   3.914   6.569   9.216
16080SOL     OW52033   4.396   5.789   8.937
16080SOL    HW152034   4.486   5.773   8.897
16080SOL    HW252035   4.404   5.794   9.036
16081SOL     OW52036   3.799   5.931   7.481
16081SOL    HW152037   3.707   5.903   7.452
16081SOL    HW252038   3.830   6.008   7.425
16082SOL     OW52039   5.164   6.442   8.846
16082SOL    HW152040   5.107   6.494   8.783
16082SOL    HW252041   5.260   6.454   8.822
16083SOL     OW52042   3.796   5.752   7.766
16083SOL    HW152043   3.779   5.835   7.712
16083SOL    HW252044   3.886   5.715   7.744
16084SOL     OW52045   4.907   6.921   7.567
16084SOL    HW152046   4.808   6.910   7.569
16084SOL    HW252047   4.941   6.936   7.660
16085SOL     OW52048   4.337   6.428   8.879
16085SOL    HW152049   4.393   6.509   8.862
16085SOL    HW252050   4.396   6.348   8.882
16086SOL     OW52051   5.217   7.353   8.407
16086SOL    HW152052   5.250   7.417   8.338
16086SOL    HW252053   5.283   7.347   8.482
16087SOL     OW52054   4.440   6.151   9.156
16087SOL    HW152055   4.459   6.216   9.230
16087SOL    HW252056   4.500   6.071   9.165
16088SOL     OW52057   5.174   6.806   9.081
16088SOL    HW152058   5.165   6.796   9.180
16088SOL    HW252059   5.270   6.799   9.055
16089SOL     OW52060   4.114   7.327   9.008
16089SOL    HW152061   4.023   7.368   9.006
16089SOL    HW252062   4.107   7.233   9.040
16090SOL     OW52063   5.398   6.469   8.702
16090SOL    HW152064   5.371   6.380   8.665
16090SOL    HW252065   5.399   6.537   8.629
16091SOL     OW52066   4.949   5.911   7.897
16091SOL    HW152067   5.014   5.837   7.886
16091SOL    HW252068   4.969   5.961   7.981
16092SOL     OW52069   4.318   6.331   8.100
16092SOL    HW152070   4.368   6.416   8.081
16092SOL    HW252071   4.230   6.333   8.052
16093SOL     OW52072   5.454   6.520   8.965
16093SOL    HW152073   5.492   6.611   8.980
16093SOL    HW252074   5.446   6.503   8.866
16094SOL     OW52075   4.583   6.960   7.464
16094SOL    HW152076   4.537   6.975   7.552
16094SOL    HW252077   4.627   7.045   7.434
16095SOL     OW52078   4.385   7.376   8.401
16095SOL    HW152079   4.339   7.464   8.388
16095SOL    HW252080   4.484   7.388   8.394
16096SOL     OW52081   4.583   6.542   8.309
16096SOL    HW152082   4.637   6.473   8.357
16096SOL    HW252083   4.551   6.611   8.375
16097SOL     OW52084   4.807   6.570   7.535
16097SOL    HW152085   4.784   6.623   7.453
16097SOL    HW252086   4.888   6.514   7.516
16098SOL     OW52087   5.585   7.155   8.299
16098SOL    HW152088   5.514   7.143   8.229
16098SOL    HW252089   5.586   7.076   8.359
16099SOL     OW52090   3.945   6.900   9.292
16099SOL    HW152091   3.880   6.827   9.271
16099SOL    HW252092   3.949   6.914   9.390
16100SOL     OW52093   3.803   6.826   8.101
16100SOL    HW152094   3.802   6.779   8.189
16100SOL    HW252095   3.885   6.798   8.050
16101SOL     OW52096   4.396   6.977   9.072
16101SOL    HW152097   4.318   6.927   9.110
16101SOL    HW252098   4.393   7.072   9.103
16102SOL     OW52099   5.548   5.778   8.675
16102SOL    HW152100   5.544   5.688   8.719
16102SOL    HW252101   5.551   5.767   8.576
16103SOL     OW52102   4.152   6.010   7.968
16103SOL    HW152103   4.182   5.938   7.906
16103SOL    HW252104   4.113   5.970   8.051
16104SOL     OW52105   5.429   7.073   8.552
16104SOL    HW152106   5.336   7.048   8.525
16104SOL    HW252107   5.455   7.023   8.634
16105SOL     OW52108   4.041   6.133   8.728
16105SOL    HW152109   4.079   6.074   8.800
16105SOL    HW252110   4.081   6.107   8.640
16106SOL     OW52111   4.536   7.172   8.135
16106SOL    HW152112   4.568   7.182   8.041
16106SOL    HW252113   4.457   7.110   8.137
16107SOL     OW52114   5.148   5.800   8.560
16107SOL    HW152115   5.200   5.735   8.615
16107SOL    HW252116   5.099   5.863   8.621
16108SOL     OW52117   4.725   5.620   8.602
16108SOL    HW152118   4.662   5.548   8.571
16108SOL    HW252119   4.818   5.584   8.602
16109SOL     OW52120   4.494   6.916   7.749
16109SOL    HW152121   4.448   6.829   7.766
16109SOL    HW252122   4.585   6.913   7.790
16110SOL     OW52123   4.342   7.153   8.732
16110SOL    HW152124   4.337   7.235   8.789
16110SOL    HW252125   4.431   7.150   8.687
16111SOL     OW52126   5.076   5.638   7.616
16111SOL    HW152127   5.111   5.597   7.532
16111SOL    HW252128   4.986   5.600   7.636
16112SOL     OW52129   5.024   6.039   8.139
16112SOL    HW152130   4.965   6.119   8.143
16112SOL    HW252131   5.039   6.004   8.232
16113SOL     OW52132   5.317   5.807   8.330
16113SOL    HW152133   5.233   5.806   8.384
16113SOL    HW252134   5.319   5.890   8.274
16114SOL     OW52135   3.763   6.663   7.748
16114SOL    HW152136   3.862   6.652   7.739
16114SOL    HW252137   3.723   6.577   7.780
16115SOL     OW52138   4.599   7.232   7.785
16115SOL    HW152139   4.522   7.197   7.731
16115SOL    HW252140   4.567   7.303   7.847
16116SOL     OW52141   3.954   6.214   9.423
16116SOL    HW152142   3.861   6.212   9.460
16116SOL    HW252143   3.955   6.175   9.331
16117SOL     OW52144   5.479   6.193   9.541
16117SOL    HW152145   5.467   6.180   9.442
16117SOL    HW252146   5.449   6.112   9.590
16118SOL     OW52147   4.330   6.550   9.433
16118SOL    HW152148   4.337   6.634   9.379
16118SOL    HW252149   4.376   6.563   9.521
16119SOL     OW52150   3.846   6.229   9.873
16119SOL    HW152151   3.801   6.141   9.890
16119SOL    HW252152   3.845   6.283   9.957
16120SOL     OW52153   5.566   7.353   9.669
16120SOL    HW152154   5.620   7.324   9.749
16120SOL    HW252155   5.596   7.443   9.640
16121SOL     OW52156   3.751   7.182   9.427
16121SOL    HW152157   3.732   7.086   9.448
16121SOL    HW252158   3.718   7.240   9.502
16122SOL     OW52159   5.413   6.508   9.922
16122SOL    HW152160   5.508   6.479   9.930
16122SOL    HW252161   5.405   6.573   9.847
16123SOL     OW52162   5.365   6.694   9.742
16123SOL    HW152163   5.451   6.696   9.690
16123SOL    HW252164   5.379   6.741   9.830
16124SOL     OW52165   4.337   6.951  10.036
16124SOL    HW152166   4.288   6.864  10.045
16124SOL    HW252167   4.314   6.994   9.949
16125SOL     OW52168   4.533   5.590   9.812
16125SOL    HW152169   4.573   5.681   9.803
16125SOL    HW252170   4.433   5.598   9.818
16126SOL     OW52171   5.249   6.585   9.500
16126SOL    HW152172   5.186   6.509   9.513
16126SOL    HW252173   5.297   6.603   9.586
16127SOL     OW52174   4.322   6.315   9.580
16127SOL    HW152175   4.346   6.384   9.512
16127SOL    HW252176   4.244   6.348   9.634
16128SOL     OW52177   5.300   7.248   9.617
16128SOL    HW152178   5.389   7.294   9.620
16128SOL    HW252179   5.279   7.224   9.522
16129SOL     OW52180   4.765   6.287   9.739
16129SOL    HW152181   4.791   6.283   9.835
16129SOL    HW252182   4.680   6.236   9.725
16130SOL     OW52183   3.800   6.397  10.099
16130SOL    HW152184   3.899   6.385  10.108
16130SOL    HW252185   3.776   6.492  10.120
16131SOL     OW52186   4.589   5.934   9.505
16131SOL    HW152187   4.648   5.997   9.456
16131SOL    HW252188   4.608   5.840   9.476
16132SOL     OW52189   5.086   6.730   9.855
16132SOL    HW152190   5.169   6.701   9.807
16132SOL    HW252191   5.037   6.797   9.799
16133SOL     OW52192   4.732   7.042   9.787
16133SOL    HW152193   4.686   7.114   9.735
16133SOL    HW252194   4.728   7.062   9.885
16134SOL     OW52195   4.075   7.387  10.163
16134SOL    HW152196   4.125   7.301  10.169
16134SOL    HW252197   4.140   7.464  10.160
16135SOL     OW52198   4.045   6.529   9.552
16135SOL    HW152199   4.127   6.568   9.510
16135SOL    HW252200   4.018   6.447   9.503
16136SOL     OW52201   4.835   7.362   9.547
16136SOL    HW152202   4.775   7.300   9.597
16136SOL    HW252203   4.866   7.318   9.462
16137SOL     OW52204   5.356   6.963   9.391
16137SOL    HW152205   5.324   7.057   9.381
16137SOL    HW252206   5.280   6.900   9.379
16138SOL     OW52207   4.188   7.329   9.633
16138SOL    HW152208   4.221   7.368   9.719
16138SOL    HW252209   4.264   7.322   9.568
16139SOL     OW52210   5.124   5.693   9.736
16139SOL    HW152211   5.100   5.656   9.646
16139SOL    HW252212   5.223   5.709   9.740
16140SOL     OW52213   4.106   6.286   9.790
16140SOL    HW152214   4.151   6.196   9.787
16140SOL    HW252215   4.012   6.275   9.823
16141SOL     OW52216   4.338   5.708   9.427
16141SOL    HW152217   4.436   5.686   9.434
16141SOL    HW252218   4.307   5.691   9.334
16142SOL     OW52219   4.263   5.650   9.822
16142SOL    HW152220   4.182   5.651   9.880
16142SOL    HW252221   4.266   5.733   9.767
16143SOL     OW52222   5.158   6.774   9.351
16143SOL    HW152223   5.190   6.698   9.408
16143SOL    HW252224   5.066   6.801   9.381
16144SOL     OW52225   4.021   5.621   9.481
16144SOL    HW152226   4.070   5.705   9.460
16144SOL    HW252227   4.083   5.556   9.526
16145SOL     OW52228   4.659   5.822   9.790
16145SOL    HW152229   4.611   5.863   9.712
16145SOL    HW252230   4.758   5.820   9.771
16146SOL     OW52231   4.183   6.738  10.051
16146SOL    HW152232   4.112   6.711  10.116
16146SOL    HW252233   4.157   6.710   9.958
16147SOL     OW52234   4.995   7.383   9.901
16147SOL    HW152235   5.039   7.447   9.837
16147SOL    HW252236   4.945   7.435   9.971
16148SOL     OW52237   4.756   6.135   9.326
16148SOL    HW152238   4.715   6.217   9.287
16148SOL    HW252239   4.820   6.161   9.399
16149SOL     OW52240   4.590   6.040   9.952
16149SOL    HW152241   4.558   6.112   9.890
16149SOL    HW252242   4.614   5.959   9.899
16150SOL     OW52243   5.581   6.419   9.687
16150SOL    HW152244   5.623   6.355   9.751
16150SOL    HW252245   5.543   6.368   9.609
16151SOL     OW52246   4.212   6.971   9.484
16151SOL    HW152247   4.125   6.956   9.531
16151SOL    HW252248   4.195   6.997   9.389
16152SOL     OW52249   5.114   6.161   9.388
16152SOL    HW152250   5.060   6.140   9.469
16152SOL    HW252251   5.205   6.120   9.397
16153SOL     OW52252   4.251   5.842   9.638
16153SOL    HW152253   4.278   5.783   9.563
16153SOL    HW252254   4.251   5.937   9.607
16154SOL     OW52255   4.429   6.636   9.678
16154SOL    HW152256   4.415   6.643   9.777
16154SOL    HW252257   4.513   6.585   9.660
16155SOL     OW52258   4.091   6.686   9.811
16155SOL    HW152259   4.084   6.769   9.755
16155SOL    HW252260   4.095   6.606   9.751
16156SOL     OW52261   4.976   6.934   9.698
16156SOL    HW152262   5.026   7.011   9.738
16156SOL    HW252263   4.881   6.936   9.730
16157SOL     OW52264   4.933   6.111   9.585
16157SOL    HW152265   4.946   6.027   9.639
16157SOL    HW252266   4.904   6.185   9.645
16158SOL     OW52267   4.031   5.649   9.928
16158SOL    HW152268   4.020   5.743   9.961
16158SOL    HW252269   4.026   5.586  10.005
16159SOL     OW52270   5.346   5.953   9.684
16159SOL    HW152271   5.348   5.877   9.748
16159SOL    HW252272   5.298   6.030   9.724
16160SOL     OW52273   5.264   5.860   9.435
16160SOL    HW152274   5.203   5.785   9.458
16160SOL    HW252275   5.286   5.912   9.518
16161SOL     OW52276   5.027   6.424   9.352
16161SOL    HW152277   5.061   6.331   9.367
16161SOL    HW252278   5.045   6.451   9.257
16162SOL     OW52279   3.732   6.912   9.510
16162SOL    HW152280   3.639   6.933   9.479
16162SOL    HW252281   3.742   6.813   9.523
16163SOL     OW52282   4.539   6.158   9.635
16163SOL    HW152283   4.546   6.069   9.589
16163SOL    HW252284   4.445   6.192   9.627
16164SOL     OW52285   4.197   6.086   9.501
16164SOL    HW152286   4.258   6.166   9.505
16164SOL    HW252287   4.102   6.117   9.508
16165SOL     OW52288   5.026   6.441   9.619
16165SOL    HW152289   4.940   6.410   9.661
16165SOL    HW252290   5.022   6.427   9.520
16166SOL     OW52291   5.450   5.721   9.833
16166SOL    HW152292   5.523   5.704   9.766
16166SOL    HW252293   5.419   5.634   9.871
16167SOL     OW52294   5.112   7.159   9.787
16167SOL    HW152295   5.179   7.171   9.713
16167SOL    HW252296   5.072   7.248   9.810
16168SOL     OW52297   4.396   7.202   9.464
16168SOL    HW152298   4.405   7.212   9.365
16168SOL    HW252299   4.356   7.113   9.485
16169SOL     OW52300   4.918   7.198   9.341
16169SOL    HW152301   4.924   7.105   9.378
16169SOL    HW252302   4.859   7.198   9.261
16170SOL     OW52303   4.640   6.496   9.601
16170SOL    HW152304   4.703   6.534   9.533
16170SOL    HW252305   4.680   6.413   9.640
16171SOL     OW52306   5.228   7.193   9.354
16171SOL    HW152307   5.136   7.230   9.361
16171SOL    HW252308   5.266   7.213   9.264
16172SOL     OW52309   3.799   5.931   9.343
16172SOL    HW152310   3.707   5.903   9.314
16172SOL    HW252311   3.830   6.008   9.287
16173SOL     OW52312   3.796   5.752   9.628
16173SOL    HW152313   3.779   5.835   9.574
16173SOL    HW252314   3.886   5.715   9.606
16174SOL     OW52315   4.907   6.921   9.429
16174SOL    HW152316   4.808   6.910   9.431
16174SOL    HW252317   4.941   6.936   9.522
16175SOL     OW52318   4.949   5.911   9.759
16175SOL    HW152319   5.014   5.837   9.748
16175SOL    HW252320   4.969   5.961   9.843
16176SOL     OW52321   4.318   6.331   9.962
16176SOL    HW152322   4.368   6.416   9.943
16176SOL    HW252323   4.230   6.333   9.914
16177SOL     OW52324   4.583   6.960   9.326
16177SOL    HW152325   4.537   6.975   9.414
16177SOL    HW252326   4.627   7.045   9.296
16178SOL     OW52327   4.807   6.570   9.397
16178SOL    HW152328   4.784   6.623   9.315
16178SOL    HW252329   4.888   6.514   9.378
16179SOL     OW52330   4.152   6.010   9.830
16179SOL    HW152331   4.182   5.938   9.768
16179SOL    HW252332   4.113   5.970   9.913
16180SOL     OW52333   4.494   6.916   9.611
16180SOL    HW152334   4.448   6.829   9.628
16180SOL    HW252335   4.585   6.913   9.652
16181SOL     OW52336   5.076   5.638   9.478
16181SOL    HW152337   5.111   5.597   9.394
16181SOL    HW252338   4.986   5.600   9.498
16182SOL     OW52339   3.763   6.663   9.610
16182SOL    HW152340   3.862   6.652   9.601
16182SOL    HW252341   3.723   6.577   9.642
16183SOL     OW52342   4.599   7.232   9.647
16183SOL    HW152343   4.522   7.197   9.593
16183SOL    HW252344   4.567   7.303   9.709
16184SOL     OW52345   3.949   7.723   0.996
16184SOL    HW152346   3.984   7.706   1.088
16184SOL    HW252347   3.861   7.678   0.984
16185SOL     OW52348   3.743   7.816   0.647
16185SOL    HW152349   3.661   7.859   0.686
16185SOL    HW252350   3.715   7.743   0.584
16186SOL     OW52351   4.293   8.723   1.165
16186SOL    HW152352   4.200   8.716   1.128
16186SOL    HW252353   4.304   8.812   1.209
16187SOL     OW52354   5.279   8.959   0.703
16187SOL    HW152355   5.222   8.943   0.784
16187SOL    HW252356   5.220   8.969   0.623
16188SOL     OW52357   4.859   8.151   0.717
16188SOL    HW152358   4.916   8.229   0.692
16188SOL    HW252359   4.799   8.177   0.793
16189SOL     OW52360   5.479   8.055   0.231
16189SOL    HW152361   5.467   8.042   0.132
16189SOL    HW252362   5.449   7.974   0.280
16190SOL     OW52363   4.492   8.592   1.023
16190SOL    HW152364   4.414   8.609   1.083
16190SOL    HW252365   4.526   8.679   0.987
16191SOL     OW52366   4.574   8.246   1.823
16191SOL    HW152367   4.570   8.322   1.888
16191SOL    HW252368   4.596   8.282   1.732
16192SOL     OW52369   4.409   8.460   0.665
16192SOL    HW152370   4.478   8.444   0.735
16192SOL    HW252371   4.336   8.517   0.703
16193SOL     OW52372   4.410   8.609   1.803
16193SOL    HW152373   4.470   8.688   1.817
16193SOL    HW252374   4.324   8.640   1.762
16194SOL     OW52375   4.059   8.883   1.061
16194SOL    HW152376   3.981   8.852   1.008
16194SOL    HW252377   4.117   8.941   1.004
16195SOL     OW52378   5.184   8.953   1.339
16195SOL    HW152379   5.208   9.047   1.365
16195SOL    HW252380   5.168   8.899   1.421
16196SOL     OW52381   4.162   7.840   1.499
16196SOL    HW152382   4.244   7.784   1.508
16196SOL    HW252383   4.081   7.782   1.503
16197SOL     OW52384   5.327   7.895   0.737
16197SOL    HW152385   5.253   7.941   0.687
16197SOL    HW252386   5.378   7.963   0.790
16198SOL     OW52387   3.955   9.161   0.483
16198SOL    HW152388   3.989   9.238   0.537
16198SOL    HW252389   3.999   9.161   0.393
16199SOL     OW52390   4.851   8.789   1.690
16199SOL    HW152391   4.898   8.789   1.778
16199SOL    HW252392   4.803   8.702   1.679
16200SOL     OW52393   3.954   8.882   0.538
16200SOL    HW152394   3.928   8.978   0.538
16200SOL    HW252395   3.883   8.828   0.583
16201SOL     OW52396   3.964   8.539   0.886
16201SOL    HW152397   3.978   8.455   0.938
16201SOL    HW252398   3.909   8.603   0.941
16202SOL     OW52399   4.344   9.234   1.439
16202SOL    HW152400   4.252   9.217   1.474
16202SOL    HW252401   4.372   9.326   1.465
16203SOL     OW52402   4.330   8.412   0.123
16203SOL    HW152403   4.337   8.496   0.069
16203SOL    HW252404   4.376   8.425   0.211
16204SOL     OW52405   5.318   7.562   1.480
16204SOL    HW152406   5.300   7.629   1.408
16204SOL    HW252407   5.315   7.608   1.569
16205SOL     OW52408   3.846   8.091   0.563
16205SOL    HW152409   3.801   8.003   0.580
16205SOL    HW252410   3.845   8.145   0.647
16206SOL     OW52411   5.566   9.215   0.359
16206SOL    HW152412   5.620   9.186   0.439
16206SOL    HW252413   5.596   9.305   0.330
16207SOL     OW52414   3.751   9.044   0.117
16207SOL    HW152415   3.732   8.948   0.138
16207SOL    HW252416   3.718   9.102   0.192
16208SOL     OW52417   5.413   8.370   0.612
16208SOL    HW152418   5.508   8.341   0.620
16208SOL    HW252419   5.405   8.435   0.537
16209SOL     OW52420   5.365   8.556   0.432
16209SOL    HW152421   5.451   8.558   0.380
16209SOL    HW252422   5.379   8.603   0.520
16210SOL     OW52423   3.837   8.185   1.597
16210SOL    HW152424   3.925   8.172   1.642
16210SOL    HW252425   3.824   8.282   1.575
16211SOL     OW52426   4.337   8.813   0.726
16211SOL    HW152427   4.288   8.726   0.735
16211SOL    HW252428   4.314   8.856   0.639
16212SOL     OW52429   5.017   8.676   1.423
16212SOL    HW152430   5.054   8.603   1.365
16212SOL    HW252431   5.069   8.681   1.508
16213SOL     OW52432   4.533   7.452   0.502
16213SOL    HW152433   4.573   7.543   0.493
16213SOL    HW252434   4.433   7.460   0.508
16214SOL     OW52435   3.921   8.424   1.264
16214SOL    HW152436   4.010   8.379   1.250
16214SOL    HW252437   3.848   8.359   1.245
16215SOL     OW52438   5.249   8.447   0.190
16215SOL    HW152439   5.186   8.371   0.203
16215SOL    HW252440   5.297   8.465   0.276
16216SOL     OW52441   4.911   9.240   1.616
16216SOL    HW152442   4.935   9.300   1.540
16216SOL    HW252443   4.918   9.145   1.586
16217SOL     OW52444   4.041   7.699   1.801
16217SOL    HW152445   4.112   7.770   1.807
16217SOL    HW252446   3.953   7.738   1.829
16218SOL     OW52447   5.190   8.865   0.953
16218SOL    HW152448   5.131   8.871   1.033
16218SOL    HW252449   5.175   8.777   0.907
16219SOL     OW52450   5.391   9.162   0.572
16219SOL    HW152451   5.350   9.139   0.484
16219SOL    HW252452   5.373   9.088   0.637
16220SOL     OW52453   4.322   8.177   0.270
16220SOL    HW152454   4.346   8.246   0.202
16220SOL    HW252455   4.244   8.210   0.324
16221SOL     OW52456   5.005   7.793   0.944
16221SOL    HW152457   4.919   7.743   0.931
16221SOL    HW252458   5.067   7.739   1.000
16222SOL     OW52459   5.300   9.110   0.307
16222SOL    HW152460   5.389   9.156   0.310
16222SOL    HW252461   5.279   9.086   0.212
16223SOL     OW52462   4.531   8.053   1.465
16223SOL    HW152463   4.484   8.050   1.554
16223SOL    HW252464   4.480   7.998   1.399
16224SOL     OW52465   5.118   7.917   1.674
16224SOL    HW152466   5.098   7.960   1.762
16224SOL    HW252467   5.196   7.855   1.683
16225SOL     OW52468   4.715   7.858   1.242
16225SOL    HW152469   4.638   7.892   1.296
16225SOL    HW252470   4.681   7.807   1.163
16226SOL     OW52471   4.765   8.149   0.429
16226SOL    HW152472   4.791   8.145   0.525
16226SOL    HW252473   4.680   8.098   0.415
16227SOL     OW52474   3.800   8.259   0.789
16227SOL    HW152475   3.899   8.247   0.798
16227SOL    HW252476   3.776   8.354   0.810
16228SOL     OW52477   5.443   8.033   1.831
16228SOL    HW152478   5.417   8.122   1.795
16228SOL    HW252479   5.441   7.965   1.758
16229SOL     OW52480   5.086   8.592   0.545
16229SOL    HW152481   5.169   8.563   0.497
16229SOL    HW252482   5.037   8.659   0.489
16230SOL     OW52483   4.274   7.644   0.885
16230SOL    HW152484   4.269   7.639   0.985
16230SOL    HW252485   4.276   7.740   0.856
16231SOL     OW52486   4.732   8.904   0.477
16231SOL    HW152487   4.686   8.976   0.425
16231SOL    HW252488   4.728   8.924   0.575
16232SOL     OW52489   4.075   9.249   0.853
16232SOL    HW152490   4.125   9.163   0.859
16232SOL    HW252491   4.140   9.326   0.850
16233SOL     OW52492   5.519   8.514   0.873
16233SOL    HW152493   5.457   8.499   0.797
16233SOL    HW252494   5.467   8.525   0.958
16234SOL     OW52495   4.951   8.998   1.506
16234SOL    HW152496   4.957   8.921   1.570
16234SOL    HW252497   4.899   8.972   1.426
16235SOL     OW52498   4.045   8.391   0.242
16235SOL    HW152499   4.127   8.430   0.200
16235SOL    HW252500   4.018   8.309   0.193
16236SOL     OW52501   5.182   8.183   0.728
16236SOL    HW152502   5.177   8.118   0.803
16236SOL    HW252503   5.262   8.242   0.741
16237SOL     OW52504   4.835   9.224   0.237
16237SOL    HW152505   4.775   9.162   0.287
16237SOL    HW252506   4.866   9.180   0.152
16238SOL     OW52507   3.926   7.733   1.498
16238SOL    HW152508   3.846   7.793   1.485
16238SOL    HW252509   3.916   7.684   1.584
16239SOL     OW52510   5.356   8.825   0.081
16239SOL    HW152511   5.324   8.919   0.071
16239SOL    HW252512   5.280   8.762   0.069
16240SOL     OW52513   4.188   9.191   0.323
16240SOL    HW152514   4.221   9.230   0.409
16240SOL    HW252515   4.264   9.184   0.258
16241SOL     OW52516   3.973   9.233   1.241
16241SOL    HW152517   4.030   9.168   1.291
16241SOL    HW252518   3.957   9.200   1.148
16242SOL     OW52519   4.664   9.146   0.904
16242SOL    HW152520   4.744   9.089   0.925
16242SOL    HW252521   4.615   9.106   0.827
16243SOL     OW52522   4.106   8.148   0.480
16243SOL    HW152523   4.151   8.058   0.477
16243SOL    HW252524   4.012   8.137   0.513
16244SOL     OW52525   5.271   7.670   1.729
16244SOL    HW152526   5.266   7.707   1.821
16244SOL    HW252527   5.199   7.601   1.717
16245SOL     OW52528   4.338   7.570   0.117
16245SOL    HW152529   4.436   7.548   0.124
16245SOL    HW252530   4.307   7.553   0.024
16246SOL     OW52531   4.505   7.712   1.749
16246SOL    HW152532   4.572   7.651   1.792
16246SOL    HW252533   4.432   7.731   1.814
16247SOL     OW52534   4.612   8.962   1.195
16247SOL    HW152535   4.589   8.937   1.101
16247SOL    HW252536   4.673   8.893   1.234
16248SOL     OW52537   4.527   8.850   0.924
16248SOL    HW152538   4.617   8.864   0.882
16248SOL    HW252539   4.456   8.852   0.853
16249SOL     OW52540   4.646   7.951   0.899
16249SOL    HW152541   4.621   7.942   0.803
16249SOL    HW252542   4.694   7.869   0.930
16250SOL     OW52543   4.263   7.512   0.512
16250SOL    HW152544   4.182   7.513   0.570
16250SOL    HW252545   4.266   7.595   0.457
16251SOL     OW52546   5.158   8.636   0.041
16251SOL    HW152547   5.190   8.560   0.098
16251SOL    HW252548   5.066   8.663   0.071
16252SOL     OW52549   4.659   7.684   0.480
16252SOL    HW152550   4.611   7.725   0.402
16252SOL    HW252551   4.758   7.682   0.461
16253SOL     OW52552   4.951   9.018   0.793
16253SOL    HW152553   4.972   9.092   0.728
16253SOL    HW252554   5.019   9.018   0.866
16254SOL     OW52555   4.183   8.600   0.741
16254SOL    HW152556   4.112   8.573   0.806
16254SOL    HW252557   4.157   8.572   0.648
16255SOL     OW52558   4.995   9.245   0.591
16255SOL    HW152559   5.039   9.309   0.527
16255SOL    HW252560   4.945   9.297   0.661
16256SOL     OW52561   4.756   7.997   0.016
16256SOL    HW152562   4.715   8.079  -0.023
16256SOL    HW252563   4.820   8.023   0.089
16257SOL     OW52564   3.802   8.004   1.386
16257SOL    HW152565   3.894   8.003   1.345
16257SOL    HW252566   3.796   8.078   1.453
16258SOL     OW52567   4.285   7.670   1.147
16258SOL    HW152568   4.323   7.586   1.184
16258SOL    HW252569   4.197   7.689   1.191
16259SOL     OW52570   4.590   7.902   0.642
16259SOL    HW152571   4.558   7.974   0.580
16259SOL    HW252572   4.614   7.821   0.589
16260SOL     OW52573   4.741   7.487   0.753
16260SOL    HW152574   4.669   7.492   0.684
16260SOL    HW252575   4.717   7.418   0.822
16261SOL     OW52576   5.153   8.621   0.867
16261SOL    HW152577   5.098   8.537   0.860
16261SOL    HW252578   5.179   8.650   0.775
16262SOL     OW52579   5.190   8.038   0.992
16262SOL    HW152580   5.160   7.943   0.999
16262SOL    HW252581   5.263   8.054   1.058
16263SOL     OW52582   5.581   8.281   0.377
16263SOL    HW152583   5.623   8.217   0.441
16263SOL    HW252584   5.543   8.230   0.299
16264SOL     OW52585   4.212   8.833   0.174
16264SOL    HW152586   4.125   8.818   0.221
16264SOL    HW252587   4.195   8.859   0.079
16265SOL     OW52588   5.388   8.728   0.657
16265SOL    HW152589   5.487   8.736   0.671
16265SOL    HW252590   5.343   8.812   0.688
16266SOL     OW52591   5.114   8.023   0.078
16266SOL    HW152592   5.060   8.002   0.159
16266SOL    HW252593   5.205   7.982   0.087
16267SOL     OW52594   4.251   7.704   0.328
16267SOL    HW152595   4.278   7.645   0.253
16267SOL    HW252596   4.251   7.799   0.297
16268SOL     OW52597   4.788   8.795   1.340
16268SOL    HW152598   4.708   8.772   1.395
16268SOL    HW252599   4.871   8.769   1.389
16269SOL     OW52600   4.835   8.643   1.100
16269SOL    HW152601   4.795   8.687   1.181
16269SOL    HW252602   4.794   8.680   1.017
16270SOL     OW52603   5.362   8.547   1.079
16270SOL    HW152604   5.367   8.628   1.138
16270SOL    HW252605   5.276   8.549   1.028
16271SOL     OW52606   4.639   7.537   1.402
16271SOL    HW152607   4.664   7.517   1.307
16271SOL    HW252608   4.711   7.593   1.444
16272SOL     OW52609   4.704   8.564   1.719
16272SOL    HW152610   4.605   8.570   1.729
16272SOL    HW252611   4.727   8.484   1.663
16273SOL     OW52612   4.429   8.498   0.368
16273SOL    HW152613   4.415   8.505   0.467
16273SOL    HW252614   4.513   8.447   0.350
16274SOL     OW52615   4.134   8.261   1.251
16274SOL    HW152616   4.220   8.273   1.301
16274SOL    HW252617   4.092   8.174   1.278
16275SOL     OW52618   4.998   7.834   1.262
16275SOL    HW152619   5.019   7.908   1.326
16275SOL    HW252620   4.909   7.851   1.219
16276SOL     OW52621   3.788   9.012   1.331
16276SOL    HW152622   3.742   9.094   1.297
16276SOL    HW252623   3.886   9.031   1.340
16277SOL     OW52624   4.091   8.548   0.501
16277SOL    HW152625   4.084   8.631   0.445
16277SOL    HW252626   4.095   8.468   0.441
16278SOL     OW52627   4.290   7.985   0.865
16278SOL    HW152628   4.302   8.051   0.791
16278SOL    HW252629   4.336   8.019   0.948
16279SOL     OW52630   4.976   8.796   0.388
16279SOL    HW152631   5.026   8.873   0.428
16279SOL    HW252632   4.881   8.798   0.420
16280SOL     OW52633   4.996   8.893   1.142
16280SOL    HW152634   5.043   8.906   1.229
16280SOL    HW252635   4.930   8.819   1.151
16281SOL     OW52636   5.306   8.087   0.472
16281SOL    HW152637   5.275   8.148   0.545
16281SOL    HW252638   5.356   8.139   0.403
16282SOL     OW52639   4.078   8.958   1.329
16282SOL    HW152640   4.057   8.914   1.242
16282SOL    HW252641   4.175   8.984   1.332
16283SOL     OW52642   4.126   8.199   1.598
16283SOL    HW152643   4.194   8.254   1.551
16283SOL    HW252644   4.166   8.111   1.625
16284SOL     OW52645   5.311   8.227   1.670
16284SOL    HW152646   5.219   8.265   1.665
16284SOL    HW252647   5.371   8.274   1.605
16285SOL     OW52648   4.737   7.553   1.770
16285SOL    HW152649   4.743   7.638   1.718
16285SOL    HW252650   4.769   7.477   1.713
16286SOL     OW52651   4.228   7.498   1.740
16286SOL    HW152652   4.186   7.441   1.670
16286SOL    HW252653   4.162   7.567   1.772
16287SOL     OW52654   4.297   8.318   1.029
16287SOL    HW152655   4.341   8.407   1.020
16287SOL    HW252656   4.234   8.318   1.106
16288SOL     OW52657   5.084   8.310   1.045
16288SOL    HW152658   5.009   8.310   0.979
16288SOL    HW252659   5.121   8.218   1.054
16289SOL     OW52660   4.031   7.661   1.231
16289SOL    HW152661   4.008   7.698   1.321
16289SOL    HW252662   4.001   7.566   1.225
16290SOL     OW52663   3.761   8.758   1.282
16290SOL    HW152664   3.814   8.709   1.350
16290SOL    HW252665   3.783   8.856   1.287
16291SOL     OW52666   4.456   8.082   1.064
16291SOL    HW152667   4.515   8.056   0.988
16291SOL    HW252668   4.428   8.178   1.053
16292SOL     OW52669   5.452   8.383   1.854
16292SOL    HW152670   5.406   8.376   1.765
16292SOL    HW252671   5.390   8.427   1.920
16293SOL     OW52672   4.031   7.511   0.618
16293SOL    HW152673   4.020   7.605   0.651
16293SOL    HW252674   4.026   7.448   0.695
16294SOL     OW52675   4.704   9.021   1.700
16294SOL    HW152676   4.684   9.065   1.612
16294SOL    HW252677   4.743   8.930   1.684
16295SOL     OW52678   4.074   8.346   1.804
16295SOL    HW152679   4.150   8.390   1.852
16295SOL    HW252680   4.109   8.299   1.722
16296SOL     OW52681   5.027   8.286   0.042
16296SOL    HW152682   5.061   8.193   0.057
16296SOL    HW252683   5.045   8.313  -0.053
16297SOL     OW52684   4.792   8.781   0.849
16297SOL    HW152685   4.799   8.697   0.794
16297SOL    HW252686   4.854   8.850   0.813
16298SOL     OW52687   4.043   8.258   0.949
16298SOL    HW152688   4.136   8.294   0.954
16298SOL    HW252689   4.037   8.173   1.001
16299SOL     OW52690   4.063   7.957   1.006
16299SOL    HW152691   4.011   7.874   0.989
16299SOL    HW252692   4.140   7.962   0.942
16300SOL     OW52693   4.862   7.828   1.678
16300SOL    HW152694   4.817   7.891   1.742
16300SOL    HW252695   4.955   7.859   1.661
16301SOL     OW52696   4.884   7.655   1.477
16301SOL    HW152697   4.884   7.719   1.554
16301SOL    HW252698   4.912   7.703   1.394
16302SOL     OW52699   3.732   8.774   0.200
16302SOL    HW152700   3.639   8.795   0.169
16302SOL    HW252701   3.742   8.675   0.213
16303SOL     OW52702   3.812   9.249   0.927
16303SOL    HW152703   3.770   9.163   0.900
16303SOL    HW252704   3.906   9.252   0.893
16304SOL     OW52705   4.228   9.016   0.910
16304SOL    HW152706   4.294   9.090   0.919
16304SOL    HW252707   4.272   8.937   0.868
16305SOL     OW52708   3.764   7.992   1.114
16305SOL    HW152709   3.849   7.959   1.073
16305SOL    HW252710   3.777   8.007   1.212
16306SOL     OW52711   3.913   7.968   1.722
16306SOL    HW152712   3.972   7.928   1.652
16306SOL    HW252713   3.855   8.039   1.681
16307SOL     OW52714   4.539   8.020   0.325
16307SOL    HW152715   4.546   7.931   0.279
16307SOL    HW252716   4.445   8.054   0.317
16308SOL     OW52717   5.381   8.052   1.206
16308SOL    HW152718   5.343   7.983   1.268
16308SOL    HW252719   5.463   8.016   1.162
16309SOL     OW52720   4.395   7.912   1.269
16309SOL    HW152721   4.361   7.823   1.239
16309SOL    HW252722   4.421   7.966   1.189
16310SOL     OW52723   4.654   9.126   1.465
16310SOL    HW152724   4.630   9.108   1.370
16310SOL    HW252725   4.684   9.220   1.475
16311SOL     OW52726   3.883   8.585   1.466
16311SOL    HW152727   3.905   8.524   1.542
16311SOL    HW252728   3.893   8.536   1.380
16312SOL     OW52729   5.071   8.507   1.234
16312SOL    HW152730   5.095   8.444   1.160
16312SOL    HW252731   4.981   8.547   1.216
16313SOL     OW52732   5.026   8.303   0.309
16313SOL    HW152733   4.940   8.272   0.351
16313SOL    HW252734   5.022   8.289   0.210
16314SOL     OW52735   5.483   9.195   1.154
16314SOL    HW152736   5.544   9.225   1.081
16314SOL    HW252737   5.445   9.106   1.132
16315SOL     OW52738   4.976   9.179   1.128
16315SOL    HW152739   5.060   9.184   1.074
16315SOL    HW252740   4.953   9.083   1.146
16316SOL     OW52741   3.807   8.706   1.022
16316SOL    HW152742   3.802   8.705   1.122
16316SOL    HW252743   3.724   8.665   0.984
16317SOL     OW52744   4.412   9.110   1.716
16317SOL    HW152745   4.356   9.191   1.725
16317SOL    HW252746   4.464   9.114   1.630
16318SOL     OW52747   5.112   9.021   0.477
16318SOL    HW152748   5.179   9.033   0.403
16318SOL    HW252749   5.072   9.110   0.500
16319SOL     OW52750   3.854   9.242   1.851
16319SOL    HW152751   3.813   9.168   1.904
16319SOL    HW252752   3.918   9.293   1.909
16320SOL     OW52753   5.004   8.375   0.672
16320SOL    HW152754   5.064   8.294   0.674
16320SOL    HW252755   5.044   8.444   0.612
16321SOL     OW52756   4.554   8.721   1.422
16321SOL    HW152757   4.549   8.754   1.517
16321SOL    HW252758   4.468   8.740   1.376
16322SOL     OW52759   4.396   9.064   0.154
16322SOL    HW152760   4.405   9.074   0.055
16322SOL    HW252761   4.356   8.975   0.175
16323SOL     OW52762   5.374   9.168   1.394
16323SOL    HW152763   5.427   9.178   1.310
16323SOL    HW252764   5.347   9.258   1.428
16324SOL     OW52765   5.565   7.623   0.963
16324SOL    HW152766   5.604   7.538   0.927
16324SOL    HW252767   5.467   7.625   0.944
16325SOL     OW52768   3.987   7.774   0.720
16325SOL    HW152769   3.908   7.825   0.686
16325SOL    HW252770   3.978   7.759   0.818
16326SOL     OW52771   4.918   9.060   0.031
16326SOL    HW152772   4.924   8.967   0.068
16326SOL    HW252773   4.859   9.060  -0.049
16327SOL     OW52774   4.546   8.450   1.372
16327SOL    HW152775   4.586   8.449   1.280
16327SOL    HW252776   4.556   8.542   1.412
16328SOL     OW52777   4.640   8.358   0.291
16328SOL    HW152778   4.703   8.396   0.223
16328SOL    HW252779   4.680   8.275   0.330
16329SOL     OW52780   5.228   9.055   0.044
16329SOL    HW152781   5.136   9.092   0.051
16329SOL    HW252782   5.266   9.075  -0.046
16330SOL     OW52783   5.338   8.740   1.289
16330SOL    HW152784   5.398   8.743   1.369
16330SOL    HW252785   5.263   8.804   1.302
16331SOL     OW52786   4.763   8.546   0.696
16331SOL    HW152787   4.693   8.499   0.750
16331SOL    HW252788   4.822   8.478   0.653
16332SOL     OW52789   4.738   7.684   0.971
16332SOL    HW152790   4.730   7.648   0.878
16332SOL    HW252791   4.736   7.608   1.036
16333SOL     OW52792   4.314   8.935   0.491
16333SOL    HW152793   4.356   8.877   0.421
16333SOL    HW252794   4.270   9.014   0.447
16334SOL     OW52795   5.433   7.833   1.381
16334SOL    HW152796   5.506   7.902   1.385
16334SOL    HW252797   5.461   7.758   1.322
16335SOL     OW52798   3.979   8.796   0.290
16335SOL    HW152799   3.883   8.797   0.263
16335SOL    HW252800   3.991   8.849   0.374
16336SOL     OW52801   3.829   8.461   1.726
16336SOL    HW152802   3.752   8.428   1.780
16336SOL    HW252803   3.914   8.431   1.768
16337SOL     OW52804   4.396   7.651   1.489
16337SOL    HW152805   4.486   7.635   1.449
16337SOL    HW252806   4.404   7.656   1.588
16338SOL     OW52807   3.799   7.793   0.033
16338SOL    HW152808   3.707   7.765   0.004
16338SOL    HW252809   3.830   7.870  -0.023
16339SOL     OW52810   3.796   7.614   0.318
16339SOL    HW152811   3.779   7.697   0.264
16339SOL    HW252812   3.886   7.577   0.296
16340SOL     OW52813   4.907   8.783   0.119
16340SOL    HW152814   4.808   8.772   0.121
16340SOL    HW252815   4.941   8.798   0.212
16341SOL     OW52816   4.337   8.290   1.431
16341SOL    HW152817   4.393   8.371   1.414
16341SOL    HW252818   4.396   8.210   1.434
16342SOL     OW52819   5.217   9.215   0.959
16342SOL    HW152820   5.250   9.279   0.890
16342SOL    HW252821   5.283   9.209   1.034
16343SOL     OW52822   4.440   8.013   1.708
16343SOL    HW152823   4.459   8.078   1.782
16343SOL    HW252824   4.500   7.933   1.717
16344SOL     OW52825   5.174   8.668   1.633
16344SOL    HW152826   5.165   8.658   1.732
16344SOL    HW252827   5.270   8.661   1.607
16345SOL     OW52828   5.398   8.331   1.254
16345SOL    HW152829   5.371   8.242   1.217
16345SOL    HW252830   5.399   8.399   1.181
16346SOL     OW52831   4.949   7.773   0.449
16346SOL    HW152832   5.014   7.699   0.438
16346SOL    HW252833   4.969   7.823   0.533
16347SOL     OW52834   4.318   8.193   0.652
16347SOL    HW152835   4.368   8.278   0.633
16347SOL    HW252836   4.230   8.195   0.604
16348SOL     OW52837   5.501   7.790   1.642
16348SOL    HW152838   5.484   7.821   1.548
16348SOL    HW252839   5.417   7.753   1.680
16349SOL     OW52840   5.454   8.382   1.517
16349SOL    HW152841   5.492   8.473   1.532
16349SOL    HW252842   5.446   8.365   1.418
16350SOL     OW52843   4.583   8.822   0.016
16350SOL    HW152844   4.537   8.837   0.104
16350SOL    HW252845   4.627   8.907  -0.014
16351SOL     OW52846   4.385   9.238   0.953
16351SOL    HW152847   4.339   9.326   0.940
16351SOL    HW252848   4.484   9.250   0.946
16352SOL     OW52849   4.583   8.404   0.861
16352SOL    HW152850   4.637   8.335   0.909
16352SOL    HW252851   4.551   8.473   0.927
16353SOL     OW52852   4.807   8.432   0.087
16353SOL    HW152853   4.784   8.485   0.005
16353SOL    HW252854   4.888   8.376   0.068
16354SOL     OW52855   5.585   9.017   0.851
16354SOL    HW152856   5.514   9.005   0.781
16354SOL    HW252857   5.586   8.938   0.911
16355SOL     OW52858   3.945   8.762   1.844
16355SOL    HW152859   3.880   8.689   1.823
16355SOL    HW252860   3.949   8.776   1.942
16356SOL     OW52861   3.803   8.688   0.653
16356SOL    HW152862   3.802   8.641   0.741
16356SOL    HW252863   3.885   8.660   0.602
16357SOL     OW52864   5.548   7.640   1.227
16357SOL    HW152865   5.544   7.550   1.271
16357SOL    HW252866   5.551   7.629   1.128
16358SOL     OW52867   4.152   7.872   0.520
16358SOL    HW152868   4.182   7.800   0.458
16358SOL    HW252869   4.113   7.832   0.603
16359SOL     OW52870   5.429   8.935   1.104
16359SOL    HW152871   5.336   8.910   1.077
16359SOL    HW252872   5.455   8.885   1.186
16360SOL     OW52873   4.041   7.995   1.280
16360SOL    HW152874   4.079   7.936   1.352
16360SOL    HW252875   4.081   7.969   1.192
16361SOL     OW52876   4.536   9.034   0.687
16361SOL    HW152877   4.568   9.044   0.593
16361SOL    HW252878   4.457   8.972   0.689
16362SOL     OW52879   5.148   7.662   1.112
16362SOL    HW152880   5.200   7.597   1.167
16362SOL    HW252881   5.099   7.725   1.173
16363SOL     OW52882   4.725   7.482   1.154
16363SOL    HW152883   4.662   7.410   1.123
16363SOL    HW252884   4.818   7.446   1.154
16364SOL     OW52885   4.494   8.778   0.301
16364SOL    HW152886   4.448   8.691   0.318
16364SOL    HW252887   4.585   8.775   0.342
16365SOL     OW52888   4.342   9.015   1.284
16365SOL    HW152889   4.337   9.097   1.341
16365SOL    HW252890   4.431   9.012   1.239
16366SOL     OW52891   5.076   7.500   0.168
16366SOL    HW152892   5.111   7.459   0.084
16366SOL    HW252893   4.986   7.462   0.188
16367SOL     OW52894   5.024   7.901   0.691
16367SOL    HW152895   4.965   7.981   0.695
16367SOL    HW252896   5.039   7.866   0.784
16368SOL     OW52897   5.317   7.669   0.882
16368SOL    HW152898   5.233   7.668   0.936
16368SOL    HW252899   5.319   7.752   0.826
16369SOL     OW52900   3.763   8.525   0.300
16369SOL    HW152901   3.862   8.514   0.291
16369SOL    HW252902   3.723   8.439   0.332
16370SOL     OW52903   4.599   9.094   0.337
16370SOL    HW152904   4.522   9.059   0.283
16370SOL    HW252905   4.567   9.165   0.399
16371SOL     OW52906   3.954   8.076   1.975
16371SOL    HW152907   3.861   8.074   2.012
16371SOL    HW252908   3.955   8.037   1.883
16372SOL     OW52909   3.949   7.723   2.858
16372SOL    HW152910   3.984   7.706   2.950
16372SOL    HW252911   3.861   7.678   2.846
16373SOL     OW52912   3.743   7.816   2.509
16373SOL    HW152913   3.661   7.859   2.548
16373SOL    HW252914   3.715   7.743   2.446
16374SOL     OW52915   4.293   8.723   3.027
16374SOL    HW152916   4.200   8.716   2.990
16374SOL    HW252917   4.304   8.812   3.071
16375SOL     OW52918   5.279   8.959   2.565
16375SOL    HW152919   5.222   8.943   2.646
16375SOL    HW252920   5.220   8.969   2.485
16376SOL     OW52921   4.859   8.151   2.579
16376SOL    HW152922   4.916   8.229   2.554
16376SOL    HW252923   4.799   8.177   2.655
16377SOL     OW52924   5.479   8.055   2.093
16377SOL    HW152925   5.467   8.042   1.994
16377SOL    HW252926   5.449   7.974   2.142
16378SOL     OW52927   4.492   8.592   2.885
16378SOL    HW152928   4.414   8.609   2.945
16378SOL    HW252929   4.526   8.679   2.849
16379SOL     OW52930   4.574   8.246   3.685
16379SOL    HW152931   4.570   8.322   3.750
16379SOL    HW252932   4.596   8.282   3.594
16380SOL     OW52933   4.409   8.460   2.527
16380SOL    HW152934   4.478   8.444   2.597
16380SOL    HW252935   4.336   8.517   2.565
16381SOL     OW52936   4.410   8.609   3.665
16381SOL    HW152937   4.470   8.688   3.679
16381SOL    HW252938   4.324   8.640   3.624
16382SOL     OW52939   4.059   8.883   2.923
16382SOL    HW152940   3.981   8.852   2.870
16382SOL    HW252941   4.117   8.941   2.866
16383SOL     OW52942   5.184   8.953   3.201
16383SOL    HW152943   5.208   9.047   3.227
16383SOL    HW252944   5.168   8.899   3.283
16384SOL     OW52945   4.162   7.840   3.361
16384SOL    HW152946   4.244   7.784   3.370
16384SOL    HW252947   4.081   7.782   3.365
16385SOL     OW52948   5.327   7.895   2.599
16385SOL    HW152949   5.253   7.941   2.549
16385SOL    HW252950   5.378   7.963   2.652
16386SOL     OW52951   3.955   9.161   2.345
16386SOL    HW152952   3.989   9.238   2.399
16386SOL    HW252953   3.999   9.161   2.255
16387SOL     OW52954   4.851   8.789   3.552
16387SOL    HW152955   4.898   8.789   3.640
16387SOL    HW252956   4.803   8.702   3.541
16388SOL     OW52957   3.954   8.882   2.400
16388SOL    HW152958   3.928   8.978   2.400
16388SOL    HW252959   3.883   8.828   2.445
16389SOL     OW52960   3.964   8.539   2.748
16389SOL    HW152961   3.978   8.455   2.800
16389SOL    HW252962   3.909   8.603   2.803
16390SOL     OW52963   4.344   9.234   3.301
16390SOL    HW152964   4.252   9.217   3.336
16390SOL    HW252965   4.372   9.326   3.327
16391SOL     OW52966   4.330   8.412   1.985
16391SOL    HW152967   4.337   8.496   1.931
16391SOL    HW252968   4.376   8.425   2.073
16392SOL     OW52969   5.318   7.562   3.342
16392SOL    HW152970   5.300   7.629   3.270
16392SOL    HW252971   5.315   7.608   3.431
16393SOL     OW52972   3.846   8.091   2.425
16393SOL    HW152973   3.801   8.003   2.442
16393SOL    HW252974   3.845   8.145   2.509
16394SOL     OW52975   5.566   9.215   2.221
16394SOL    HW152976   5.620   9.186   2.301
16394SOL    HW252977   5.596   9.305   2.192
16395SOL     OW52978   3.751   9.044   1.979
16395SOL    HW152979   3.732   8.948   2.000
16395SOL    HW252980   3.718   9.102   2.054
16396SOL     OW52981   5.413   8.370   2.474
16396SOL    HW152982   5.508   8.341   2.482
16396SOL    HW252983   5.405   8.435   2.399
16397SOL     OW52984   5.365   8.556   2.294
16397SOL    HW152985   5.451   8.558   2.242
16397SOL    HW252986   5.379   8.603   2.382
16398SOL     OW52987   3.837   8.185   3.459
16398SOL    HW152988   3.925   8.172   3.504
16398SOL    HW252989   3.824   8.282   3.437
16399SOL     OW52990   4.337   8.813   2.588
16399SOL    HW152991   4.288   8.726   2.597
16399SOL    HW252992   4.314   8.856   2.501
16400SOL     OW52993   5.017   8.676   3.285
16400SOL    HW152994   5.054   8.603   3.227
16400SOL    HW252995   5.069   8.681   3.370
16401SOL     OW52996   4.533   7.452   2.364
16401SOL    HW152997   4.573   7.543   2.355
16401SOL    HW252998   4.433   7.460   2.370
16402SOL     OW52999   3.921   8.424   3.126
16402SOL    HW153000   4.010   8.379   3.112
16402SOL    HW253001   3.848   8.359   3.107
16403SOL     OW53002   5.249   8.447   2.052
16403SOL    HW153003   5.186   8.371   2.065
16403SOL    HW253004   5.297   8.465   2.138
16404SOL     OW53005   4.911   9.240   3.478
16404SOL    HW153006   4.935   9.300   3.402
16404SOL    HW253007   4.918   9.145   3.448
16405SOL     OW53008   4.041   7.699   3.663
16405SOL    HW153009   4.112   7.770   3.669
16405SOL    HW253010   3.953   7.738   3.691
16406SOL     OW53011   5.190   8.865   2.815
16406SOL    HW153012   5.131   8.871   2.895
16406SOL    HW253013   5.175   8.777   2.769
16407SOL     OW53014   5.391   9.162   2.434
16407SOL    HW153015   5.350   9.139   2.346
16407SOL    HW253016   5.373   9.088   2.499
16408SOL     OW53017   4.322   8.177   2.132
16408SOL    HW153018   4.346   8.246   2.064
16408SOL    HW253019   4.244   8.210   2.186
16409SOL     OW53020   5.005   7.793   2.806
16409SOL    HW153021   4.919   7.743   2.793
16409SOL    HW253022   5.067   7.739   2.862
16410SOL     OW53023   5.300   9.110   2.169
16410SOL    HW153024   5.389   9.156   2.172
16410SOL    HW253025   5.279   9.086   2.074
16411SOL     OW53026   4.531   8.053   3.327
16411SOL    HW153027   4.484   8.050   3.416
16411SOL    HW253028   4.480   7.998   3.261
16412SOL     OW53029   5.118   7.917   3.536
16412SOL    HW153030   5.098   7.960   3.624
16412SOL    HW253031   5.196   7.855   3.545
16413SOL     OW53032   4.715   7.858   3.104
16413SOL    HW153033   4.638   7.892   3.158
16413SOL    HW253034   4.681   7.807   3.025
16414SOL     OW53035   4.765   8.149   2.291
16414SOL    HW153036   4.791   8.145   2.387
16414SOL    HW253037   4.680   8.098   2.277
16415SOL     OW53038   3.800   8.259   2.651
16415SOL    HW153039   3.899   8.247   2.660
16415SOL    HW253040   3.776   8.354   2.672
16416SOL     OW53041   3.854   9.269   3.433
16416SOL    HW153042   3.844   9.254   3.532
16416SOL    HW253043   3.768   9.305   3.397
16417SOL     OW53044   4.589   7.796   2.057
16417SOL    HW153045   4.648   7.859   2.008
16417SOL    HW253046   4.608   7.702   2.028
16418SOL     OW53047   5.443   8.033   3.693
16418SOL    HW153048   5.417   8.122   3.657
16418SOL    HW253049   5.441   7.965   3.620
16419SOL     OW53050   5.086   8.592   2.407
16419SOL    HW153051   5.169   8.563   2.359
16419SOL    HW253052   5.037   8.659   2.351
16420SOL     OW53053   4.274   7.644   2.747
16420SOL    HW153054   4.269   7.639   2.847
16420SOL    HW253055   4.276   7.740   2.718
16421SOL     OW53056   4.732   8.904   2.339
16421SOL    HW153057   4.686   8.976   2.287
16421SOL    HW253058   4.728   8.924   2.437
16422SOL     OW53059   4.075   9.249   2.715
16422SOL    HW153060   4.125   9.163   2.721
16422SOL    HW253061   4.140   9.326   2.712
16423SOL     OW53062   5.519   8.514   2.735
16423SOL    HW153063   5.457   8.499   2.659
16423SOL    HW253064   5.467   8.525   2.820
16424SOL     OW53065   4.951   8.998   3.368
16424SOL    HW153066   4.957   8.921   3.432
16424SOL    HW253067   4.899   8.972   3.288
16425SOL     OW53068   4.045   8.391   2.104
16425SOL    HW153069   4.127   8.430   2.062
16425SOL    HW253070   4.018   8.309   2.055
16426SOL     OW53071   5.182   8.183   2.590
16426SOL    HW153072   5.177   8.118   2.665
16426SOL    HW253073   5.262   8.242   2.603
16427SOL     OW53074   4.185   8.714   3.589
16427SOL    HW153075   4.135   8.715   3.503
16427SOL    HW253076   4.122   8.696   3.665
16428SOL     OW53077   4.835   9.224   2.099
16428SOL    HW153078   4.775   9.162   2.149
16428SOL    HW253079   4.866   9.180   2.014
16429SOL     OW53080   3.926   7.733   3.360
16429SOL    HW153081   3.846   7.793   3.347
16429SOL    HW253082   3.916   7.684   3.446
16430SOL     OW53083   5.356   8.825   1.943
16430SOL    HW153084   5.324   8.919   1.933
16430SOL    HW253085   5.280   8.762   1.931
16431SOL     OW53086   4.188   9.191   2.185
16431SOL    HW153087   4.221   9.230   2.271
16431SOL    HW253088   4.264   9.184   2.120
16432SOL     OW53089   5.124   7.555   2.288
16432SOL    HW153090   5.100   7.518   2.198
16432SOL    HW253091   5.223   7.571   2.292
16433SOL     OW53092   3.973   9.233   3.103
16433SOL    HW153093   4.030   9.168   3.153
16433SOL    HW253094   3.957   9.200   3.010
16434SOL     OW53095   4.664   9.146   2.766
16434SOL    HW153096   4.744   9.089   2.787
16434SOL    HW253097   4.615   9.106   2.689
16435SOL     OW53098   4.106   8.148   2.342
16435SOL    HW153099   4.151   8.058   2.339
16435SOL    HW253100   4.012   8.137   2.375
16436SOL     OW53101   5.271   7.670   3.591
16436SOL    HW153102   5.266   7.707   3.683
16436SOL    HW253103   5.199   7.601   3.579
16437SOL     OW53104   4.338   7.570   1.979
16437SOL    HW153105   4.436   7.548   1.986
16437SOL    HW253106   4.307   7.553   1.886
16438SOL     OW53107   4.505   7.712   3.611
16438SOL    HW153108   4.572   7.651   3.654
16438SOL    HW253109   4.432   7.731   3.676
16439SOL     OW53110   4.612   8.962   3.057
16439SOL    HW153111   4.589   8.937   2.963
16439SOL    HW253112   4.673   8.893   3.096
16440SOL     OW53113   4.527   8.850   2.786
16440SOL    HW153114   4.617   8.864   2.744
16440SOL    HW253115   4.456   8.852   2.715
16441SOL     OW53116   4.646   7.951   2.761
16441SOL    HW153117   4.621   7.942   2.665
16441SOL    HW253118   4.694   7.869   2.792
16442SOL     OW53119   4.263   7.512   2.374
16442SOL    HW153120   4.182   7.513   2.432
16442SOL    HW253121   4.266   7.595   2.319
16443SOL     OW53122   5.158   8.636   1.903
16443SOL    HW153123   5.190   8.560   1.960
16443SOL    HW253124   5.066   8.663   1.933
16444SOL     OW53125   4.021   7.483   2.033
16444SOL    HW153126   4.070   7.567   2.012
16444SOL    HW253127   4.083   7.418   2.078
16445SOL     OW53128   4.659   7.684   2.342
16445SOL    HW153129   4.611   7.725   2.264
16445SOL    HW253130   4.758   7.682   2.323
16446SOL     OW53131   4.951   9.018   2.655
16446SOL    HW153132   4.972   9.092   2.590
16446SOL    HW253133   5.019   9.018   2.728
16447SOL     OW53134   4.183   8.600   2.603
16447SOL    HW153135   4.112   8.573   2.668
16447SOL    HW253136   4.157   8.572   2.510
16448SOL     OW53137   4.995   9.245   2.453
16448SOL    HW153138   5.039   9.309   2.389
16448SOL    HW253139   4.945   9.297   2.523
16449SOL     OW53140   4.756   7.997   1.878
16449SOL    HW153141   4.715   8.079   1.839
16449SOL    HW253142   4.820   8.023   1.951
16450SOL     OW53143   3.802   8.004   3.248
16450SOL    HW153144   3.894   8.003   3.207
16450SOL    HW253145   3.796   8.078   3.315
16451SOL     OW53146   4.285   7.670   3.009
16451SOL    HW153147   4.323   7.586   3.046
16451SOL    HW253148   4.197   7.689   3.053
16452SOL     OW53149   4.590   7.902   2.504
16452SOL    HW153150   4.558   7.974   2.442
16452SOL    HW253151   4.614   7.821   2.451
16453SOL     OW53152   4.741   7.487   2.615
16453SOL    HW153153   4.669   7.492   2.546
16453SOL    HW253154   4.717   7.418   2.684
16454SOL     OW53155   5.153   8.621   2.729
16454SOL    HW153156   5.098   8.537   2.722
16454SOL    HW253157   5.179   8.650   2.637
16455SOL     OW53158   5.190   8.038   2.854
16455SOL    HW153159   5.160   7.943   2.861
16455SOL    HW253160   5.263   8.054   2.920
16456SOL     OW53161   5.581   8.281   2.239
16456SOL    HW153162   5.623   8.217   2.303
16456SOL    HW253163   5.543   8.230   2.161
16457SOL     OW53164   5.388   8.728   2.519
16457SOL    HW153165   5.487   8.736   2.533
16457SOL    HW253166   5.343   8.812   2.550
16458SOL     OW53167   5.114   8.023   1.940
16458SOL    HW153168   5.060   8.002   2.021
16458SOL    HW253169   5.205   7.982   1.949
16459SOL     OW53170   4.251   7.704   2.190
16459SOL    HW153171   4.278   7.645   2.115
16459SOL    HW253172   4.251   7.799   2.159
16460SOL     OW53173   5.478   8.671   3.450
16460SOL    HW153174   5.569   8.632   3.437
16460SOL    HW253175   5.486   8.767   3.474
16461SOL     OW53176   4.788   8.795   3.202
16461SOL    HW153177   4.708   8.772   3.257
16461SOL    HW253178   4.871   8.769   3.251
16462SOL     OW53179   5.316   9.077   3.487
16462SOL    HW153180   5.343   9.111   3.397
16462SOL    HW253181   5.395   9.039   3.533
16463SOL     OW53182   4.835   8.643   2.962
16463SOL    HW153183   4.795   8.687   3.043
16463SOL    HW253184   4.794   8.680   2.879
16464SOL     OW53185   5.362   8.547   2.941
16464SOL    HW153186   5.367   8.628   3.000
16464SOL    HW253187   5.276   8.549   2.890
16465SOL     OW53188   4.639   7.537   3.264
16465SOL    HW153189   4.664   7.517   3.169
16465SOL    HW253190   4.711   7.593   3.306
16466SOL     OW53191   4.704   8.564   3.581
16466SOL    HW153192   4.605   8.570   3.591
16466SOL    HW253193   4.727   8.484   3.525
16467SOL     OW53194   4.429   8.498   2.230
16467SOL    HW153195   4.415   8.505   2.329
16467SOL    HW253196   4.513   8.447   2.212
16468SOL     OW53197   4.134   8.261   3.113
16468SOL    HW153198   4.220   8.273   3.163
16468SOL    HW253199   4.092   8.174   3.140
16469SOL     OW53200   3.788   9.012   3.193
16469SOL    HW153201   3.742   9.094   3.159
16469SOL    HW253202   3.886   9.031   3.202
16470SOL     OW53203   4.091   8.548   2.363
16470SOL    HW153204   4.084   8.631   2.307
16470SOL    HW253205   4.095   8.468   2.303
16471SOL     OW53206   4.290   7.985   2.727
16471SOL    HW153207   4.302   8.051   2.653
16471SOL    HW253208   4.336   8.019   2.810
16472SOL     OW53209   4.976   8.796   2.250
16472SOL    HW153210   5.026   8.873   2.290
16472SOL    HW253211   4.881   8.798   2.282
16473SOL     OW53212   4.996   8.893   3.004
16473SOL    HW153213   5.043   8.906   3.091
16473SOL    HW253214   4.930   8.819   3.013
16474SOL     OW53215   5.306   8.087   2.334
16474SOL    HW153216   5.275   8.148   2.407
16474SOL    HW253217   5.356   8.139   2.265
16475SOL     OW53218   4.078   8.958   3.191
16475SOL    HW153219   4.057   8.914   3.104
16475SOL    HW253220   4.175   8.984   3.194
16476SOL     OW53221   4.126   8.199   3.460
16476SOL    HW153222   4.194   8.254   3.413
16476SOL    HW253223   4.166   8.111   3.487
16477SOL     OW53224   5.311   8.227   3.532
16477SOL    HW153225   5.219   8.265   3.527
16477SOL    HW253226   5.371   8.274   3.467
16478SOL     OW53227   4.737   7.553   3.632
16478SOL    HW153228   4.743   7.638   3.580
16478SOL    HW253229   4.769   7.477   3.575
16479SOL     OW53230   4.228   7.498   3.602
16479SOL    HW153231   4.186   7.441   3.532
16479SOL    HW253232   4.162   7.567   3.634
16480SOL     OW53233   4.297   8.318   2.891
16480SOL    HW153234   4.341   8.407   2.882
16480SOL    HW253235   4.234   8.318   2.968
16481SOL     OW53236   5.084   8.310   2.907
16481SOL    HW153237   5.009   8.310   2.841
16481SOL    HW253238   5.121   8.218   2.916
16482SOL     OW53239   4.933   7.973   2.137
16482SOL    HW153240   4.946   7.889   2.191
16482SOL    HW253241   4.904   8.047   2.197
16483SOL     OW53242   4.031   7.661   3.093
16483SOL    HW153243   4.008   7.698   3.183
16483SOL    HW253244   4.001   7.566   3.087
16484SOL     OW53245   3.761   8.758   3.144
16484SOL    HW153246   3.814   8.709   3.212
16484SOL    HW253247   3.783   8.856   3.149
16485SOL     OW53248   4.456   8.082   2.926
16485SOL    HW153249   4.515   8.056   2.850
16485SOL    HW253250   4.428   8.178   2.915
16486SOL     OW53251   5.452   8.383   3.716
16486SOL    HW153252   5.406   8.376   3.627
16486SOL    HW253253   5.390   8.427   3.782
16487SOL     OW53254   4.031   7.511   2.480
16487SOL    HW153255   4.020   7.605   2.513
16487SOL    HW253256   4.026   7.448   2.557
16488SOL     OW53257   5.346   7.815   2.236
16488SOL    HW153258   5.348   7.739   2.300
16488SOL    HW253259   5.298   7.892   2.276
16489SOL     OW53260   4.747   8.214   2.828
16489SOL    HW153261   4.762   8.235   2.924
16489SOL    HW253262   4.717   8.119   2.819
16490SOL     OW53263   4.704   9.021   3.562
16490SOL    HW153264   4.684   9.065   3.474
16490SOL    HW253265   4.743   8.930   3.546
16491SOL     OW53266   5.583   8.966   3.467
16491SOL    HW153267   5.597   8.993   3.372
16491SOL    HW253268   5.666   8.988   3.520
16492SOL     OW53269   4.074   8.346   3.666
16492SOL    HW153270   4.150   8.390   3.714
16492SOL    HW253271   4.109   8.299   3.584
16493SOL     OW53272   5.264   7.722   1.987
16493SOL    HW153273   5.203   7.647   2.010
16493SOL    HW253274   5.286   7.774   2.070
16494SOL     OW53275   5.027   8.286   1.904
16494SOL    HW153276   5.061   8.193   1.919
16494SOL    HW253277   5.045   8.313   1.809
16495SOL     OW53278   4.792   8.781   2.711
16495SOL    HW153279   4.799   8.697   2.656
16495SOL    HW253280   4.854   8.850   2.675
16496SOL     OW53281   4.043   8.258   2.811
16496SOL    HW153282   4.136   8.294   2.816
16496SOL    HW253283   4.037   8.173   2.863
16497SOL     OW53284   4.063   7.957   2.868
16497SOL    HW153285   4.011   7.874   2.851
16497SOL    HW253286   4.140   7.962   2.804
16498SOL     OW53287   4.862   7.828   3.540
16498SOL    HW153288   4.817   7.891   3.604
16498SOL    HW253289   4.955   7.859   3.523
16499SOL     OW53290   4.884   7.655   3.339
16499SOL    HW153291   4.884   7.719   3.416
16499SOL    HW253292   4.912   7.703   3.256
16500SOL     OW53293   3.732   8.774   2.062
16500SOL    HW153294   3.639   8.795   2.031
16500SOL    HW253295   3.742   8.675   2.075
16501SOL     OW53296   3.812   9.249   2.789
16501SOL    HW153297   3.770   9.163   2.762
16501SOL    HW253298   3.906   9.252   2.755
16502SOL     OW53299   4.228   9.016   2.772
16502SOL    HW153300   4.294   9.090   2.781
16502SOL    HW253301   4.272   8.937   2.730
16503SOL     OW53302   4.726   8.244   3.100
16503SOL    HW153303   4.767   8.212   3.186
16503SOL    HW253304   4.630   8.217   3.097
16504SOL     OW53305   3.764   7.992   2.976
16504SOL    HW153306   3.849   7.959   2.935
16504SOL    HW253307   3.777   8.007   3.074
16505SOL     OW53308   3.913   7.968   3.584
16505SOL    HW153309   3.972   7.928   3.514
16505SOL    HW253310   3.855   8.039   3.543
16506SOL     OW53311   4.539   8.020   2.187
16506SOL    HW153312   4.546   7.931   2.141
16506SOL    HW253313   4.445   8.054   2.179
16507SOL     OW53314   5.381   8.052   3.068
16507SOL    HW153315   5.343   7.983   3.130
16507SOL    HW253316   5.463   8.016   3.024
16508SOL     OW53317   3.976   9.012   3.606
16508SOL    HW153318   3.946   9.069   3.682
16508SOL    HW253319   3.969   8.915   3.632
16509SOL     OW53320   4.395   7.912   3.131
16509SOL    HW153321   4.361   7.823   3.101
16509SOL    HW253322   4.421   7.966   3.051
16510SOL     OW53323   4.654   9.126   3.327
16510SOL    HW153324   4.630   9.108   3.232
16510SOL    HW253325   4.684   9.220   3.337
16511SOL     OW53326   4.197   7.948   2.053
16511SOL    HW153327   4.258   8.028   2.057
16511SOL    HW253328   4.102   7.979   2.060
16512SOL     OW53329   3.883   8.585   3.328
16512SOL    HW153330   3.905   8.524   3.404
16512SOL    HW253331   3.893   8.536   3.242
16513SOL     OW53332   5.071   8.507   3.096
16513SOL    HW153333   5.095   8.444   3.022
16513SOL    HW253334   4.981   8.547   3.078
16514SOL     OW53335   5.026   8.303   2.171
16514SOL    HW153336   4.940   8.272   2.213
16514SOL    HW253337   5.022   8.289   2.072
16515SOL     OW53338   5.483   9.195   3.016
16515SOL    HW153339   5.544   9.225   2.943
16515SOL    HW253340   5.445   9.106   2.994
16516SOL     OW53341   4.976   9.179   2.990
16516SOL    HW153342   5.060   9.184   2.936
16516SOL    HW253343   4.953   9.083   3.008
16517SOL     OW53344   3.807   8.706   2.884
16517SOL    HW153345   3.802   8.705   2.984
16517SOL    HW253346   3.724   8.665   2.846
16518SOL     OW53347   4.412   9.110   3.578
16518SOL    HW153348   4.356   9.191   3.587
16518SOL    HW253349   4.464   9.114   3.492
16519SOL     OW53350   5.450   7.583   2.385
16519SOL    HW153351   5.523   7.566   2.318
16519SOL    HW253352   5.419   7.496   2.423
16520SOL     OW53353   5.112   9.021   2.339
16520SOL    HW153354   5.179   9.033   2.265
16520SOL    HW253355   5.072   9.110   2.362
16521SOL     OW53356   3.854   9.242   3.713
16521SOL    HW153357   3.813   9.168   3.766
16521SOL    HW253358   3.918   9.293   3.771
16522SOL     OW53359   5.004   8.375   2.534
16522SOL    HW153360   5.064   8.294   2.536
16522SOL    HW253361   5.044   8.444   2.474
16523SOL     OW53362   4.554   8.721   3.284
16523SOL    HW153363   4.549   8.754   3.379
16523SOL    HW253364   4.468   8.740   3.238
16524SOL     OW53365   5.374   9.168   3.256
16524SOL    HW153366   5.427   9.178   3.172
16524SOL    HW253367   5.347   9.258   3.290
16525SOL     OW53368   5.565   7.623   2.825
16525SOL    HW153369   5.604   7.538   2.789
16525SOL    HW253370   5.467   7.625   2.806
16526SOL     OW53371   3.987   7.774   2.582
16526SOL    HW153372   3.908   7.825   2.548
16526SOL    HW253373   3.978   7.759   2.680
16527SOL     OW53374   4.918   9.060   1.893
16527SOL    HW153375   4.924   8.967   1.930
16527SOL    HW253376   4.859   9.060   1.813
16528SOL     OW53377   4.546   8.450   3.234
16528SOL    HW153378   4.586   8.449   3.142
16528SOL    HW253379   4.556   8.542   3.274
16529SOL     OW53380   4.640   8.358   2.153
16529SOL    HW153381   4.703   8.396   2.085
16529SOL    HW253382   4.680   8.275   2.192
16530SOL     OW53383   5.228   9.055   1.906
16530SOL    HW153384   5.136   9.092   1.913
16530SOL    HW253385   5.266   9.075   1.816
16531SOL     OW53386   4.096   8.736   3.352
16531SOL    HW153387   4.083   8.829   3.318
16531SOL    HW253388   4.012   8.684   3.339
16532SOL     OW53389   5.338   8.740   3.151
16532SOL    HW153390   5.398   8.743   3.231
16532SOL    HW253391   5.263   8.804   3.164
16533SOL     OW53392   4.763   8.546   2.558
16533SOL    HW153393   4.693   8.499   2.612
16533SOL    HW253394   4.822   8.478   2.515
16534SOL     OW53395   4.738   7.684   2.833
16534SOL    HW153396   4.730   7.648   2.740
16534SOL    HW253397   4.736   7.608   2.898
16535SOL     OW53398   4.314   8.935   2.353
16535SOL    HW153399   4.356   8.877   2.283
16535SOL    HW253400   4.270   9.014   2.309
16536SOL     OW53401   5.433   7.833   3.243
16536SOL    HW153402   5.506   7.902   3.247
16536SOL    HW253403   5.461   7.758   3.184
16537SOL     OW53404   3.979   8.796   2.152
16537SOL    HW153405   3.883   8.797   2.125
16537SOL    HW253406   3.991   8.849   2.236
16538SOL     OW53407   3.829   8.461   3.588
16538SOL    HW153408   3.752   8.428   3.642
16538SOL    HW253409   3.914   8.431   3.630
16539SOL     OW53410   4.396   7.651   3.351
16539SOL    HW153411   4.486   7.635   3.311
16539SOL    HW253412   4.404   7.656   3.450
16540SOL     OW53413   3.799   7.793   1.895
16540SOL    HW153414   3.707   7.765   1.866
16540SOL    HW253415   3.830   7.870   1.839
16541SOL     OW53416   3.796   7.614   2.180
16541SOL    HW153417   3.779   7.697   2.126
16541SOL    HW253418   3.886   7.577   2.158
16542SOL     OW53419   4.907   8.783   1.981
16542SOL    HW153420   4.808   8.772   1.983
16542SOL    HW253421   4.941   8.798   2.074
16543SOL     OW53422   4.337   8.290   3.293
16543SOL    HW153423   4.393   8.371   3.276
16543SOL    HW253424   4.396   8.210   3.296
16544SOL     OW53425   5.217   9.215   2.821
16544SOL    HW153426   5.250   9.279   2.752
16544SOL    HW253427   5.283   9.209   2.896
16545SOL     OW53428   4.440   8.013   3.570
16545SOL    HW153429   4.459   8.078   3.644
16545SOL    HW253430   4.500   7.933   3.579
16546SOL     OW53431   5.174   8.668   3.495
16546SOL    HW153432   5.165   8.658   3.594
16546SOL    HW253433   5.270   8.661   3.469
16547SOL     OW53434   4.114   9.189   3.422
16547SOL    HW153435   4.023   9.230   3.420
16547SOL    HW253436   4.107   9.095   3.454
16548SOL     OW53437   5.398   8.331   3.116
16548SOL    HW153438   5.371   8.242   3.079
16548SOL    HW253439   5.399   8.399   3.043
16549SOL     OW53440   4.949   7.773   2.311
16549SOL    HW153441   5.014   7.699   2.300
16549SOL    HW253442   4.969   7.823   2.395
16550SOL     OW53443   4.318   8.193   2.514
16550SOL    HW153444   4.368   8.278   2.495
16550SOL    HW253445   4.230   8.195   2.466
16551SOL     OW53446   5.501   7.790   3.504
16551SOL    HW153447   5.484   7.821   3.410
16551SOL    HW253448   5.417   7.753   3.542
16552SOL     OW53449   5.454   8.382   3.379
16552SOL    HW153450   5.492   8.473   3.394
16552SOL    HW253451   5.446   8.365   3.280
16553SOL     OW53452   4.583   8.822   1.878
16553SOL    HW153453   4.537   8.837   1.966
16553SOL    HW253454   4.627   8.907   1.848
16554SOL     OW53455   4.385   9.238   2.815
16554SOL    HW153456   4.339   9.326   2.802
16554SOL    HW253457   4.484   9.250   2.808
16555SOL     OW53458   4.583   8.404   2.723
16555SOL    HW153459   4.637   8.335   2.771
16555SOL    HW253460   4.551   8.473   2.789
16556SOL     OW53461   4.807   8.432   1.949
16556SOL    HW153462   4.784   8.485   1.867
16556SOL    HW253463   4.888   8.376   1.930
16557SOL     OW53464   5.585   9.017   2.713
16557SOL    HW153465   5.514   9.005   2.643
16557SOL    HW253466   5.586   8.938   2.773
16558SOL     OW53467   3.945   8.762   3.706
16558SOL    HW153468   3.880   8.689   3.685
16558SOL    HW253469   3.949   8.776   3.804
16559SOL     OW53470   3.803   8.688   2.515
16559SOL    HW153471   3.802   8.641   2.603
16559SOL    HW253472   3.885   8.660   2.464
16560SOL     OW53473   4.396   8.839   3.486
16560SOL    HW153474   4.318   8.789   3.524
16560SOL    HW253475   4.393   8.934   3.517
16561SOL     OW53476   5.548   7.640   3.089
16561SOL    HW153477   5.544   7.550   3.133
16561SOL    HW253478   5.551   7.629   2.990
16562SOL     OW53479   4.152   7.872   2.382
16562SOL    HW153480   4.182   7.800   2.320
16562SOL    HW253481   4.113   7.832   2.465
16563SOL     OW53482   5.429   8.935   2.966
16563SOL    HW153483   5.336   8.910   2.939
16563SOL    HW253484   5.455   8.885   3.048
16564SOL     OW53485   4.041   7.995   3.142
16564SOL    HW153486   4.079   7.936   3.214
16564SOL    HW253487   4.081   7.969   3.054
16565SOL     OW53488   4.536   9.034   2.549
16565SOL    HW153489   4.568   9.044   2.455
16565SOL    HW253490   4.457   8.972   2.551
16566SOL     OW53491   5.148   7.662   2.974
16566SOL    HW153492   5.200   7.597   3.029
16566SOL    HW253493   5.099   7.725   3.035
16567SOL     OW53494   4.725   7.482   3.016
16567SOL    HW153495   4.662   7.410   2.985
16567SOL    HW253496   4.818   7.446   3.016
16568SOL     OW53497   4.494   8.778   2.163
16568SOL    HW153498   4.448   8.691   2.180
16568SOL    HW253499   4.585   8.775   2.204
16569SOL     OW53500   4.342   9.015   3.146
16569SOL    HW153501   4.337   9.097   3.203
16569SOL    HW253502   4.431   9.012   3.101
16570SOL     OW53503   5.076   7.500   2.030
16570SOL    HW153504   5.111   7.459   1.946
16570SOL    HW253505   4.986   7.462   2.050
16571SOL     OW53506   5.024   7.901   2.553
16571SOL    HW153507   4.965   7.981   2.557
16571SOL    HW253508   5.039   7.866   2.646
16572SOL     OW53509   5.317   7.669   2.744
16572SOL    HW153510   5.233   7.668   2.798
16572SOL    HW253511   5.319   7.752   2.688
16573SOL     OW53512   3.763   8.525   2.162
16573SOL    HW153513   3.862   8.514   2.153
16573SOL    HW253514   3.723   8.439   2.194
16574SOL     OW53515   4.599   9.094   2.199
16574SOL    HW153516   4.522   9.059   2.145
16574SOL    HW253517   4.567   9.165   2.261
16575SOL     OW53518   3.954   8.076   3.837
16575SOL    HW153519   3.861   8.074   3.874
16575SOL    HW253520   3.955   8.037   3.745
16576SOL     OW53521   3.949   7.723   4.720
16576SOL    HW153522   3.984   7.706   4.812
16576SOL    HW253523   3.861   7.678   4.708
16577SOL     OW53524   3.743   7.816   4.371
16577SOL    HW153525   3.661   7.859   4.410
16577SOL    HW253526   3.715   7.743   4.308
16578SOL     OW53527   4.293   8.723   4.889
16578SOL    HW153528   4.200   8.716   4.852
16578SOL    HW253529   4.304   8.812   4.933
16579SOL     OW53530   5.279   8.959   4.427
16579SOL    HW153531   5.222   8.943   4.508
16579SOL    HW253532   5.220   8.969   4.347
16580SOL     OW53533   4.859   8.151   4.441
16580SOL    HW153534   4.916   8.229   4.416
16580SOL    HW253535   4.799   8.177   4.517
16581SOL     OW53536   5.479   8.055   3.955
16581SOL    HW153537   5.467   8.042   3.856
16581SOL    HW253538   5.449   7.974   4.004
16582SOL     OW53539   4.492   8.592   4.747
16582SOL    HW153540   4.414   8.609   4.807
16582SOL    HW253541   4.526   8.679   4.711
16583SOL     OW53542   4.574   8.246   5.547
16583SOL    HW153543   4.570   8.322   5.612
16583SOL    HW253544   4.596   8.282   5.456
16584SOL     OW53545   4.409   8.460   4.389
16584SOL    HW153546   4.478   8.444   4.459
16584SOL    HW253547   4.336   8.517   4.427
16585SOL     OW53548   4.410   8.609   5.527
16585SOL    HW153549   4.470   8.688   5.541
16585SOL    HW253550   4.324   8.640   5.486
16586SOL     OW53551   4.059   8.883   4.785
16586SOL    HW153552   3.981   8.852   4.732
16586SOL    HW253553   4.117   8.941   4.728
16587SOL     OW53554   4.162   7.840   5.223
16587SOL    HW153555   4.244   7.784   5.232
16587SOL    HW253556   4.081   7.782   5.227
16588SOL     OW53557   5.327   7.895   4.461
16588SOL    HW153558   5.253   7.941   4.411
16588SOL    HW253559   5.378   7.963   4.514
16589SOL     OW53560   3.955   9.161   4.207
16589SOL    HW153561   3.989   9.238   4.261
16589SOL    HW253562   3.999   9.161   4.117
16590SOL     OW53563   4.851   8.789   5.414
16590SOL    HW153564   4.898   8.789   5.502
16590SOL    HW253565   4.803   8.702   5.403
16591SOL     OW53566   3.954   8.882   4.262
16591SOL    HW153567   3.928   8.978   4.262
16591SOL    HW253568   3.883   8.828   4.307
16592SOL     OW53569   3.964   8.539   4.610
16592SOL    HW153570   3.978   8.455   4.662
16592SOL    HW253571   3.909   8.603   4.665
16593SOL     OW53572   4.344   9.234   5.163
16593SOL    HW153573   4.252   9.217   5.198
16593SOL    HW253574   4.372   9.326   5.189
16594SOL     OW53575   4.330   8.412   3.847
16594SOL    HW153576   4.337   8.496   3.793
16594SOL    HW253577   4.376   8.425   3.935
16595SOL     OW53578   5.318   7.562   5.204
16595SOL    HW153579   5.300   7.629   5.132
16595SOL    HW253580   5.315   7.608   5.293
16596SOL     OW53581   3.846   8.091   4.287
16596SOL    HW153582   3.801   8.003   4.304
16596SOL    HW253583   3.845   8.145   4.371
16597SOL     OW53584   5.566   9.215   4.083
16597SOL    HW153585   5.620   9.186   4.163
16597SOL    HW253586   5.596   9.305   4.054
16598SOL     OW53587   3.751   9.044   3.841
16598SOL    HW153588   3.732   8.948   3.862
16598SOL    HW253589   3.718   9.102   3.916
16599SOL     OW53590   5.413   8.370   4.336
16599SOL    HW153591   5.508   8.341   4.344
16599SOL    HW253592   5.405   8.435   4.261
16600SOL     OW53593   5.365   8.556   4.156
16600SOL    HW153594   5.451   8.558   4.104
16600SOL    HW253595   5.379   8.603   4.244
16601SOL     OW53596   3.837   8.185   5.321
16601SOL    HW153597   3.925   8.172   5.366
16601SOL    HW253598   3.824   8.282   5.299
16602SOL     OW53599   4.337   8.813   4.450
16602SOL    HW153600   4.288   8.726   4.459
16602SOL    HW253601   4.314   8.856   4.363
16603SOL     OW53602   5.017   8.676   5.147
16603SOL    HW153603   5.054   8.603   5.089
16603SOL    HW253604   5.069   8.681   5.232
16604SOL     OW53605   4.533   7.452   4.226
16604SOL    HW153606   4.573   7.543   4.217
16604SOL    HW253607   4.433   7.460   4.232
16605SOL     OW53608   3.921   8.424   4.988
16605SOL    HW153609   4.010   8.379   4.974
16605SOL    HW253610   3.848   8.359   4.969
16606SOL     OW53611   5.249   8.447   3.914
16606SOL    HW153612   5.186   8.371   3.927
16606SOL    HW253613   5.297   8.465   4.000
16607SOL     OW53614   4.911   9.240   5.340
16607SOL    HW153615   4.935   9.300   5.264
16607SOL    HW253616   4.918   9.145   5.310
16608SOL     OW53617   4.041   7.699   5.525
16608SOL    HW153618   4.112   7.770   5.531
16608SOL    HW253619   3.953   7.738   5.553
16609SOL     OW53620   5.190   8.865   4.677
16609SOL    HW153621   5.131   8.871   4.757
16609SOL    HW253622   5.175   8.777   4.631
16610SOL     OW53623   5.391   9.162   4.296
16610SOL    HW153624   5.350   9.139   4.208
16610SOL    HW253625   5.373   9.088   4.361
16611SOL     OW53626   4.322   8.177   3.994
16611SOL    HW153627   4.346   8.246   3.926
16611SOL    HW253628   4.244   8.210   4.048
16612SOL     OW53629   5.005   7.793   4.668
16612SOL    HW153630   4.919   7.743   4.655
16612SOL    HW253631   5.067   7.739   4.724
16613SOL     OW53632   5.300   9.110   4.031
16613SOL    HW153633   5.389   9.156   4.034
16613SOL    HW253634   5.279   9.086   3.936
16614SOL     OW53635   4.531   8.053   5.189
16614SOL    HW153636   4.484   8.050   5.278
16614SOL    HW253637   4.480   7.998   5.123
16615SOL     OW53638   5.118   7.917   5.398
16615SOL    HW153639   5.098   7.960   5.486
16615SOL    HW253640   5.196   7.855   5.407
16616SOL     OW53641   4.697   8.338   5.296
16616SOL    HW153642   4.743   8.254   5.267
16616SOL    HW253643   4.641   8.372   5.221
16617SOL     OW53644   4.715   7.858   4.966
16617SOL    HW153645   4.638   7.892   5.020
16617SOL    HW253646   4.681   7.807   4.887
16618SOL     OW53647   4.765   8.149   4.153
16618SOL    HW153648   4.791   8.145   4.249
16618SOL    HW253649   4.680   8.098   4.139
16619SOL     OW53650   3.800   8.259   4.513
16619SOL    HW153651   3.899   8.247   4.522
16619SOL    HW253652   3.776   8.354   4.534
16620SOL     OW53653   4.589   7.796   3.919
16620SOL    HW153654   4.648   7.859   3.870
16620SOL    HW253655   4.608   7.702   3.890
16621SOL     OW53656   5.443   8.033   5.555
16621SOL    HW153657   5.417   8.122   5.519
16621SOL    HW253658   5.441   7.965   5.482
16622SOL     OW53659   5.086   8.592   4.269
16622SOL    HW153660   5.169   8.563   4.221
16622SOL    HW253661   5.037   8.659   4.213
16623SOL     OW53662   4.274   7.644   4.609
16623SOL    HW153663   4.269   7.639   4.709
16623SOL    HW253664   4.276   7.740   4.580
16624SOL     OW53665   4.732   8.904   4.201
16624SOL    HW153666   4.686   8.976   4.149
16624SOL    HW253667   4.728   8.924   4.299
16625SOL     OW53668   4.075   9.249   4.577
16625SOL    HW153669   4.125   9.163   4.583
16625SOL    HW253670   4.140   9.326   4.574
16626SOL     OW53671   5.519   8.514   4.597
16626SOL    HW153672   5.457   8.499   4.521
16626SOL    HW253673   5.467   8.525   4.682
16627SOL     OW53674   4.951   8.998   5.230
16627SOL    HW153675   4.957   8.921   5.294
16627SOL    HW253676   4.899   8.972   5.150
16628SOL     OW53677   4.045   8.391   3.966
16628SOL    HW153678   4.127   8.430   3.924
16628SOL    HW253679   4.018   8.309   3.917
16629SOL     OW53680   5.182   8.183   4.452
16629SOL    HW153681   5.177   8.118   4.527
16629SOL    HW253682   5.262   8.242   4.465
16630SOL     OW53683   4.185   8.714   5.451
16630SOL    HW153684   4.135   8.715   5.365
16630SOL    HW253685   4.122   8.696   5.527
16631SOL     OW53686   4.835   9.224   3.961
16631SOL    HW153687   4.775   9.162   4.011
16631SOL    HW253688   4.866   9.180   3.876
16632SOL     OW53689   3.926   7.733   5.222
16632SOL    HW153690   3.846   7.793   5.209
16632SOL    HW253691   3.916   7.684   5.308
16633SOL     OW53692   5.356   8.825   3.805
16633SOL    HW153693   5.324   8.919   3.795
16633SOL    HW253694   5.280   8.762   3.793
16634SOL     OW53695   4.188   9.191   4.047
16634SOL    HW153696   4.221   9.230   4.133
16634SOL    HW253697   4.264   9.184   3.982
16635SOL     OW53698   5.124   7.555   4.150
16635SOL    HW153699   5.100   7.518   4.060
16635SOL    HW253700   5.223   7.571   4.154
16636SOL     OW53701   3.973   9.233   4.965
16636SOL    HW153702   4.030   9.168   5.015
16636SOL    HW253703   3.957   9.200   4.872
16637SOL     OW53704   4.664   9.146   4.628
16637SOL    HW153705   4.744   9.089   4.649
16637SOL    HW253706   4.615   9.106   4.551
16638SOL     OW53707   4.106   8.148   4.204
16638SOL    HW153708   4.151   8.058   4.201
16638SOL    HW253709   4.012   8.137   4.237
16639SOL     OW53710   5.271   7.670   5.453
16639SOL    HW153711   5.266   7.707   5.545
16639SOL    HW253712   5.199   7.601   5.441
16640SOL     OW53713   4.338   7.570   3.841
16640SOL    HW153714   4.436   7.548   3.848
16640SOL    HW253715   4.307   7.553   3.748
16641SOL     OW53716   4.505   7.712   5.473
16641SOL    HW153717   4.572   7.651   5.516
16641SOL    HW253718   4.432   7.731   5.538
16642SOL     OW53719   4.612   8.962   4.919
16642SOL    HW153720   4.589   8.937   4.825
16642SOL    HW253721   4.673   8.893   4.958
16643SOL     OW53722   5.075   8.038   5.157
16643SOL    HW153723   5.103   7.995   5.242
16643SOL    HW253724   5.100   8.134   5.158
16644SOL     OW53725   4.527   8.850   4.648
16644SOL    HW153726   4.617   8.864   4.606
16644SOL    HW253727   4.456   8.852   4.577
16645SOL     OW53728   4.646   7.951   4.623
16645SOL    HW153729   4.621   7.942   4.527
16645SOL    HW253730   4.694   7.869   4.654
16646SOL     OW53731   4.263   7.512   4.236
16646SOL    HW153732   4.182   7.513   4.294
16646SOL    HW253733   4.266   7.595   4.181
16647SOL     OW53734   5.158   8.636   3.765
16647SOL    HW153735   5.190   8.560   3.822
16647SOL    HW253736   5.066   8.663   3.795
16648SOL     OW53737   4.021   7.483   3.895
16648SOL    HW153738   4.070   7.567   3.874
16648SOL    HW253739   4.083   7.418   3.940
16649SOL     OW53740   4.659   7.684   4.204
16649SOL    HW153741   4.611   7.725   4.126
16649SOL    HW253742   4.758   7.682   4.185
16650SOL     OW53743   4.800   8.131   5.188
16650SOL    HW153744   4.720   8.070   5.191
16650SOL    HW253745   4.881   8.078   5.164
16651SOL     OW53746   4.951   9.018   4.517
16651SOL    HW153747   4.972   9.092   4.452
16651SOL    HW253748   5.019   9.018   4.590
16652SOL     OW53749   4.183   8.600   4.465
16652SOL    HW153750   4.112   8.573   4.530
16652SOL    HW253751   4.157   8.572   4.372
16653SOL     OW53752   4.995   9.245   4.315
16653SOL    HW153753   5.039   9.309   4.251
16653SOL    HW253754   4.945   9.297   4.385
16654SOL     OW53755   4.756   7.997   3.740
16654SOL    HW153756   4.715   8.079   3.701
16654SOL    HW253757   4.820   8.023   3.813
16655SOL     OW53758   3.802   8.004   5.110
16655SOL    HW153759   3.894   8.003   5.069
16655SOL    HW253760   3.796   8.078   5.177
16656SOL     OW53761   4.285   7.670   4.871
16656SOL    HW153762   4.323   7.586   4.908
16656SOL    HW253763   4.197   7.689   4.915
16657SOL     OW53764   4.590   7.902   4.366
16657SOL    HW153765   4.558   7.974   4.304
16657SOL    HW253766   4.614   7.821   4.313
16658SOL     OW53767   4.741   7.487   4.477
16658SOL    HW153768   4.669   7.492   4.408
16658SOL    HW253769   4.717   7.418   4.546
16659SOL     OW53770   5.153   8.621   4.591
16659SOL    HW153771   5.098   8.537   4.584
16659SOL    HW253772   5.179   8.650   4.499
16660SOL     OW53773   5.190   8.038   4.716
16660SOL    HW153774   5.160   7.943   4.723
16660SOL    HW253775   5.263   8.054   4.782
16661SOL     OW53776   5.581   8.281   4.101
16661SOL    HW153777   5.623   8.217   4.165
16661SOL    HW253778   5.543   8.230   4.023
16662SOL     OW53779   4.212   8.833   3.898
16662SOL    HW153780   4.125   8.818   3.945
16662SOL    HW253781   4.195   8.859   3.803
16663SOL     OW53782   5.388   8.728   4.381
16663SOL    HW153783   5.487   8.736   4.395
16663SOL    HW253784   5.343   8.812   4.412
16664SOL     OW53785   5.114   8.023   3.802
16664SOL    HW153786   5.060   8.002   3.883
16664SOL    HW253787   5.205   7.982   3.811
16665SOL     OW53788   4.251   7.704   4.052
16665SOL    HW153789   4.278   7.645   3.977
16665SOL    HW253790   4.251   7.799   4.021
16666SOL     OW53791   5.478   8.671   5.312
16666SOL    HW153792   5.569   8.632   5.299
16666SOL    HW253793   5.486   8.767   5.336
16667SOL     OW53794   4.788   8.795   5.064
16667SOL    HW153795   4.708   8.772   5.119
16667SOL    HW253796   4.871   8.769   5.113
16668SOL     OW53797   5.316   9.077   5.349
16668SOL    HW153798   5.343   9.111   5.259
16668SOL    HW253799   5.395   9.039   5.395
16669SOL     OW53800   4.835   8.643   4.824
16669SOL    HW153801   4.795   8.687   4.905
16669SOL    HW253802   4.794   8.680   4.741
16670SOL     OW53803   5.362   8.547   4.803
16670SOL    HW153804   5.367   8.628   4.862
16670SOL    HW253805   5.276   8.549   4.752
16671SOL     OW53806   4.639   7.537   5.126
16671SOL    HW153807   4.664   7.517   5.031
16671SOL    HW253808   4.711   7.593   5.168
16672SOL     OW53809   4.704   8.564   5.443
16672SOL    HW153810   4.605   8.570   5.453
16672SOL    HW253811   4.727   8.484   5.387
16673SOL     OW53812   4.429   8.498   4.092
16673SOL    HW153813   4.415   8.505   4.191
16673SOL    HW253814   4.513   8.447   4.074
16674SOL     OW53815   4.134   8.261   4.975
16674SOL    HW153816   4.220   8.273   5.025
16674SOL    HW253817   4.092   8.174   5.002
16675SOL     OW53818   4.998   7.834   4.986
16675SOL    HW153819   5.019   7.908   5.050
16675SOL    HW253820   4.909   7.851   4.943
16676SOL     OW53821   4.091   8.548   4.225
16676SOL    HW153822   4.084   8.631   4.169
16676SOL    HW253823   4.095   8.468   4.165
16677SOL     OW53824   4.290   7.985   4.589
16677SOL    HW153825   4.302   8.051   4.515
16677SOL    HW253826   4.336   8.019   4.672
16678SOL     OW53827   4.976   8.796   4.112
16678SOL    HW153828   5.026   8.873   4.152
16678SOL    HW253829   4.881   8.798   4.144
16679SOL     OW53830   5.306   8.087   4.196
16679SOL    HW153831   5.275   8.148   4.269
16679SOL    HW253832   5.356   8.139   4.127
16680SOL     OW53833   4.078   8.958   5.053
16680SOL    HW153834   4.057   8.914   4.966
16680SOL    HW253835   4.175   8.984   5.056
16681SOL     OW53836   4.126   8.199   5.322
16681SOL    HW153837   4.194   8.254   5.275
16681SOL    HW253838   4.166   8.111   5.349
16682SOL     OW53839   5.311   8.227   5.394
16682SOL    HW153840   5.219   8.265   5.389
16682SOL    HW253841   5.371   8.274   5.329
16683SOL     OW53842   4.737   7.553   5.494
16683SOL    HW153843   4.743   7.638   5.442
16683SOL    HW253844   4.769   7.477   5.437
16684SOL     OW53845   4.228   7.498   5.464
16684SOL    HW153846   4.186   7.441   5.394
16684SOL    HW253847   4.162   7.567   5.496
16685SOL     OW53848   4.297   8.318   4.753
16685SOL    HW153849   4.341   8.407   4.744
16685SOL    HW253850   4.234   8.318   4.830
16686SOL     OW53851   5.084   8.310   4.769
16686SOL    HW153852   5.009   8.310   4.703
16686SOL    HW253853   5.121   8.218   4.778
16687SOL     OW53854   4.933   7.973   3.999
16687SOL    HW153855   4.946   7.889   4.053
16687SOL    HW253856   4.904   8.047   4.059
16688SOL     OW53857   4.031   7.661   4.955
16688SOL    HW153858   4.008   7.698   5.045
16688SOL    HW253859   4.001   7.566   4.949
16689SOL     OW53860   3.761   8.758   5.006
16689SOL    HW153861   3.814   8.709   5.074
16689SOL    HW253862   3.783   8.856   5.011
16690SOL     OW53863   4.456   8.082   4.788
16690SOL    HW153864   4.515   8.056   4.712
16690SOL    HW253865   4.428   8.178   4.777
16691SOL     OW53866   5.452   8.383   5.578
16691SOL    HW153867   5.406   8.376   5.489
16691SOL    HW253868   5.390   8.427   5.644
16692SOL     OW53869   4.031   7.511   4.342
16692SOL    HW153870   4.020   7.605   4.375
16692SOL    HW253871   4.026   7.448   4.419
16693SOL     OW53872   5.346   7.815   4.098
16693SOL    HW153873   5.348   7.739   4.162
16693SOL    HW253874   5.298   7.892   4.138
16694SOL     OW53875   4.747   8.214   4.690
16694SOL    HW153876   4.762   8.235   4.786
16694SOL    HW253877   4.717   8.119   4.681
16695SOL     OW53878   4.704   9.021   5.424
16695SOL    HW153879   4.684   9.065   5.336
16695SOL    HW253880   4.743   8.930   5.408
16696SOL     OW53881   5.583   8.966   5.329
16696SOL    HW153882   5.597   8.993   5.234
16696SOL    HW253883   5.666   8.988   5.382
16697SOL     OW53884   4.074   8.346   5.528
16697SOL    HW153885   4.150   8.390   5.576
16697SOL    HW253886   4.109   8.299   5.446
16698SOL     OW53887   5.264   7.722   3.849
16698SOL    HW153888   5.203   7.647   3.872
16698SOL    HW253889   5.286   7.774   3.932
16699SOL     OW53890   5.027   8.286   3.766
16699SOL    HW153891   5.061   8.193   3.781
16699SOL    HW253892   5.045   8.313   3.671
16700SOL     OW53893   4.792   8.781   4.573
16700SOL    HW153894   4.799   8.697   4.518
16700SOL    HW253895   4.854   8.850   4.537
16701SOL     OW53896   4.043   8.258   4.673
16701SOL    HW153897   4.136   8.294   4.678
16701SOL    HW253898   4.037   8.173   4.725
16702SOL     OW53899   4.063   7.957   4.730
16702SOL    HW153900   4.011   7.874   4.713
16702SOL    HW253901   4.140   7.962   4.666
16703SOL     OW53902   4.862   7.828   5.402
16703SOL    HW153903   4.817   7.891   5.466
16703SOL    HW253904   4.955   7.859   5.385
16704SOL     OW53905   4.884   7.655   5.201
16704SOL    HW153906   4.884   7.719   5.278
16704SOL    HW253907   4.912   7.703   5.118
16705SOL     OW53908   3.732   8.774   3.924
16705SOL    HW153909   3.639   8.795   3.893
16705SOL    HW253910   3.742   8.675   3.937
16706SOL     OW53911   3.812   9.249   4.651
16706SOL    HW153912   3.770   9.163   4.624
16706SOL    HW253913   3.906   9.252   4.617
16707SOL     OW53914   4.228   9.016   4.634
16707SOL    HW153915   4.294   9.090   4.643
16707SOL    HW253916   4.272   8.937   4.592
16708SOL     OW53917   4.726   8.244   4.962
16708SOL    HW153918   4.767   8.212   5.048
16708SOL    HW253919   4.630   8.217   4.959
16709SOL     OW53920   3.764   7.992   4.838
16709SOL    HW153921   3.849   7.959   4.797
16709SOL    HW253922   3.777   8.007   4.936
16710SOL     OW53923   3.913   7.968   5.446
16710SOL    HW153924   3.972   7.928   5.376
16710SOL    HW253925   3.855   8.039   5.405
16711SOL     OW53926   5.093   8.398   5.384
16711SOL    HW153927   5.132   8.487   5.404
16711SOL    HW253928   5.103   8.378   5.287
16712SOL     OW53929   4.539   8.020   4.049
16712SOL    HW153930   4.546   7.931   4.003
16712SOL    HW253931   4.445   8.054   4.041
16713SOL     OW53932   5.381   8.052   4.930
16713SOL    HW153933   5.343   7.983   4.992
16713SOL    HW253934   5.463   8.016   4.886
16714SOL     OW53935   4.395   7.912   4.993
16714SOL    HW153936   4.361   7.823   4.963
16714SOL    HW253937   4.421   7.966   4.913
16715SOL     OW53938   4.654   9.126   5.189
16715SOL    HW153939   4.630   9.108   5.094
16715SOL    HW253940   4.684   9.220   5.199
16716SOL     OW53941   4.197   7.948   3.915
16716SOL    HW153942   4.258   8.028   3.919
16716SOL    HW253943   4.102   7.979   3.922
16717SOL     OW53944   3.883   8.585   5.190
16717SOL    HW153945   3.905   8.524   5.266
16717SOL    HW253946   3.893   8.536   5.104
16718SOL     OW53947   5.071   8.507   4.958
16718SOL    HW153948   5.095   8.444   4.884
16718SOL    HW253949   4.981   8.547   4.940
16719SOL     OW53950   5.026   8.303   4.033
16719SOL    HW153951   4.940   8.272   4.075
16719SOL    HW253952   5.022   8.289   3.934
16720SOL     OW53953   3.807   8.706   4.746
16720SOL    HW153954   3.802   8.705   4.846
16720SOL    HW253955   3.724   8.665   4.708
16721SOL     OW53956   4.412   9.110   5.440
16721SOL    HW153957   4.356   9.191   5.449
16721SOL    HW253958   4.464   9.114   5.354
16722SOL     OW53959   5.450   7.583   4.247
16722SOL    HW153960   5.523   7.566   4.180
16722SOL    HW253961   5.419   7.496   4.285
16723SOL     OW53962   5.112   9.021   4.201
16723SOL    HW153963   5.179   9.033   4.127
16723SOL    HW253964   5.072   9.110   4.224
16724SOL     OW53965   5.004   8.375   4.396
16724SOL    HW153966   5.064   8.294   4.398
16724SOL    HW253967   5.044   8.444   4.336
16725SOL     OW53968   4.554   8.721   5.146
16725SOL    HW153969   4.549   8.754   5.241
16725SOL    HW253970   4.468   8.740   5.100
16726SOL     OW53971   4.396   9.064   3.878
16726SOL    HW153972   4.405   9.074   3.779
16726SOL    HW253973   4.356   8.975   3.899
16727SOL     OW53974   5.565   7.623   4.687
16727SOL    HW153975   5.604   7.538   4.651
16727SOL    HW253976   5.467   7.625   4.668
16728SOL     OW53977   3.987   7.774   4.444
16728SOL    HW153978   3.908   7.825   4.410
16728SOL    HW253979   3.978   7.759   4.542
16729SOL     OW53980   4.918   9.060   3.755
16729SOL    HW153981   4.924   8.967   3.792
16729SOL    HW253982   4.859   9.060   3.675
16730SOL     OW53983   4.546   8.450   5.096
16730SOL    HW153984   4.586   8.449   5.004
16730SOL    HW253985   4.556   8.542   5.136
16731SOL     OW53986   4.640   8.358   4.015
16731SOL    HW153987   4.703   8.396   3.947
16731SOL    HW253988   4.680   8.275   4.054
16732SOL     OW53989   5.228   9.055   3.768
16732SOL    HW153990   5.136   9.092   3.775
16732SOL    HW253991   5.266   9.075   3.678
16733SOL     OW53992   4.096   8.736   5.214
16733SOL    HW153993   4.083   8.829   5.180
16733SOL    HW253994   4.012   8.684   5.201
16734SOL     OW53995   4.763   8.546   4.420
16734SOL    HW153996   4.693   8.499   4.474
16734SOL    HW253997   4.822   8.478   4.377
16735SOL     OW53998   4.738   7.684   4.695
16735SOL    HW153999   4.730   7.648   4.602
16735SOL    HW254000   4.736   7.608   4.760
16736SOL     OW54001   4.314   8.935   4.215
16736SOL    HW154002   4.356   8.877   4.145
16736SOL    HW254003   4.270   9.014   4.171
16737SOL     OW54004   5.433   7.833   5.105
16737SOL    HW154005   5.506   7.902   5.109
16737SOL    HW254006   5.461   7.758   5.046
16738SOL     OW54007   3.979   8.796   4.014
16738SOL    HW154008   3.883   8.797   3.987
16738SOL    HW254009   3.991   8.849   4.098
16739SOL     OW54010   3.829   8.461   5.450
16739SOL    HW154011   3.752   8.428   5.504
16739SOL    HW254012   3.914   8.431   5.492
16740SOL     OW54013   4.396   7.651   5.213
16740SOL    HW154014   4.486   7.635   5.173
16740SOL    HW254015   4.404   7.656   5.312
16741SOL     OW54016   3.799   7.793   3.757
16741SOL    HW154017   3.707   7.765   3.728
16741SOL    HW254018   3.830   7.870   3.701
16742SOL     OW54019   5.164   8.304   5.122
16742SOL    HW154020   5.107   8.356   5.059
16742SOL    HW254021   5.260   8.316   5.098
16743SOL     OW54022   3.796   7.614   4.042
16743SOL    HW154023   3.779   7.697   3.988
16743SOL    HW254024   3.886   7.577   4.020
16744SOL     OW54025   4.907   8.783   3.843
16744SOL    HW154026   4.808   8.772   3.845
16744SOL    HW254027   4.941   8.798   3.936
16745SOL     OW54028   4.337   8.290   5.155
16745SOL    HW154029   4.393   8.371   5.138
16745SOL    HW254030   4.396   8.210   5.158
16746SOL     OW54031   4.440   8.013   5.432
16746SOL    HW154032   4.459   8.078   5.506
16746SOL    HW254033   4.500   7.933   5.441
16747SOL     OW54034   5.174   8.668   5.357
16747SOL    HW154035   5.165   8.658   5.456
16747SOL    HW254036   5.270   8.661   5.331
16748SOL     OW54037   5.398   8.331   4.978
16748SOL    HW154038   5.371   8.242   4.941
16748SOL    HW254039   5.399   8.399   4.905
16749SOL     OW54040   4.949   7.773   4.173
16749SOL    HW154041   5.014   7.699   4.162
16749SOL    HW254042   4.969   7.823   4.257
16750SOL     OW54043   4.318   8.193   4.376
16750SOL    HW154044   4.368   8.278   4.357
16750SOL    HW254045   4.230   8.195   4.328
16751SOL     OW54046   5.501   7.790   5.366
16751SOL    HW154047   5.484   7.821   5.272
16751SOL    HW254048   5.417   7.753   5.404
16752SOL     OW54049   5.454   8.382   5.241
16752SOL    HW154050   5.492   8.473   5.256
16752SOL    HW254051   5.446   8.365   5.142
16753SOL     OW54052   4.583   8.822   3.740
16753SOL    HW154053   4.537   8.837   3.828
16753SOL    HW254054   4.627   8.907   3.710
16754SOL     OW54055   4.385   9.238   4.677
16754SOL    HW154056   4.339   9.326   4.664
16754SOL    HW254057   4.484   9.250   4.670
16755SOL     OW54058   4.583   8.404   4.585
16755SOL    HW154059   4.637   8.335   4.633
16755SOL    HW254060   4.551   8.473   4.651
16756SOL     OW54061   4.807   8.432   3.811
16756SOL    HW154062   4.784   8.485   3.729
16756SOL    HW254063   4.888   8.376   3.792
16757SOL     OW54064   5.585   9.017   4.575
16757SOL    HW154065   5.514   9.005   4.505
16757SOL    HW254066   5.586   8.938   4.635
16758SOL     OW54067   3.945   8.762   5.568
16758SOL    HW154068   3.880   8.689   5.547
16758SOL    HW254069   3.949   8.776   5.666
16759SOL     OW54070   3.803   8.688   4.377
16759SOL    HW154071   3.802   8.641   4.465
16759SOL    HW254072   3.885   8.660   4.326
16760SOL     OW54073   4.396   8.839   5.348
16760SOL    HW154074   4.318   8.789   5.386
16760SOL    HW254075   4.393   8.934   5.379
16761SOL     OW54076   5.548   7.640   4.951
16761SOL    HW154077   5.544   7.550   4.995
16761SOL    HW254078   5.551   7.629   4.852
16762SOL     OW54079   4.152   7.872   4.244
16762SOL    HW154080   4.182   7.800   4.182
16762SOL    HW254081   4.113   7.832   4.327
16763SOL     OW54082   5.429   8.935   4.828
16763SOL    HW154083   5.336   8.910   4.801
16763SOL    HW254084   5.455   8.885   4.910
16764SOL     OW54085   4.041   7.995   5.004
16764SOL    HW154086   4.079   7.936   5.076
16764SOL    HW254087   4.081   7.969   4.916
16765SOL     OW54088   4.536   9.034   4.411
16765SOL    HW154089   4.568   9.044   4.317
16765SOL    HW254090   4.457   8.972   4.413
16766SOL     OW54091   5.148   7.662   4.836
16766SOL    HW154092   5.200   7.597   4.891
16766SOL    HW254093   5.099   7.725   4.897
16767SOL     OW54094   4.725   7.482   4.878
16767SOL    HW154095   4.662   7.410   4.847
16767SOL    HW254096   4.818   7.446   4.878
16768SOL     OW54097   4.494   8.778   4.025
16768SOL    HW154098   4.448   8.691   4.042
16768SOL    HW254099   4.585   8.775   4.066
16769SOL     OW54100   4.342   9.015   5.008
16769SOL    HW154101   4.337   9.097   5.065
16769SOL    HW254102   4.431   9.012   4.963
16770SOL     OW54103   5.076   7.500   3.892
16770SOL    HW154104   5.111   7.459   3.808
16770SOL    HW254105   4.986   7.462   3.912
16771SOL     OW54106   5.024   7.901   4.415
16771SOL    HW154107   4.965   7.981   4.419
16771SOL    HW254108   5.039   7.866   4.508
16772SOL     OW54109   5.317   7.669   4.606
16772SOL    HW154110   5.233   7.668   4.660
16772SOL    HW254111   5.319   7.752   4.550
16773SOL     OW54112   3.763   8.525   4.024
16773SOL    HW154113   3.862   8.514   4.015
16773SOL    HW254114   3.723   8.439   4.056
16774SOL     OW54115   4.599   9.094   4.061
16774SOL    HW154116   4.522   9.059   4.007
16774SOL    HW254117   4.567   9.165   4.123
16775SOL     OW54118   3.954   8.076   5.699
16775SOL    HW154119   3.861   8.074   5.736
16775SOL    HW254120   3.955   8.037   5.607
16776SOL     OW54121   3.949   7.723   6.582
16776SOL    HW154122   3.984   7.706   6.674
16776SOL    HW254123   3.861   7.678   6.570
16777SOL     OW54124   3.743   7.816   6.233
16777SOL    HW154125   3.661   7.859   6.272
16777SOL    HW254126   3.715   7.743   6.170
16778SOL     OW54127   4.293   8.723   6.751
16778SOL    HW154128   4.200   8.716   6.714
16778SOL    HW254129   4.304   8.812   6.795
16779SOL     OW54130   5.279   8.959   6.289
16779SOL    HW154131   5.222   8.943   6.370
16779SOL    HW254132   5.220   8.969   6.209
16780SOL     OW54133   4.859   8.151   6.303
16780SOL    HW154134   4.916   8.229   6.278
16780SOL    HW254135   4.799   8.177   6.379
16781SOL     OW54136   5.479   8.055   5.817
16781SOL    HW154137   5.467   8.042   5.718
16781SOL    HW254138   5.449   7.974   5.866
16782SOL     OW54139   4.492   8.592   6.609
16782SOL    HW154140   4.414   8.609   6.669
16782SOL    HW254141   4.526   8.679   6.573
16783SOL     OW54142   4.574   8.246   7.409
16783SOL    HW154143   4.570   8.322   7.474
16783SOL    HW254144   4.596   8.282   7.318
16784SOL     OW54145   4.409   8.460   6.251
16784SOL    HW154146   4.478   8.444   6.321
16784SOL    HW254147   4.336   8.517   6.289
16785SOL     OW54148   4.410   8.609   7.389
16785SOL    HW154149   4.470   8.688   7.403
16785SOL    HW254150   4.324   8.640   7.348
16786SOL     OW54151   4.059   8.883   6.647
16786SOL    HW154152   3.981   8.852   6.594
16786SOL    HW254153   4.117   8.941   6.590
16787SOL     OW54154   5.184   8.953   6.925
16787SOL    HW154155   5.208   9.047   6.951
16787SOL    HW254156   5.168   8.899   7.007
16788SOL     OW54157   4.162   7.840   7.085
16788SOL    HW154158   4.244   7.784   7.094
16788SOL    HW254159   4.081   7.782   7.089
16789SOL     OW54160   5.327   7.895   6.323
16789SOL    HW154161   5.253   7.941   6.273
16789SOL    HW254162   5.378   7.963   6.376
16790SOL     OW54163   3.955   9.161   6.069
16790SOL    HW154164   3.989   9.238   6.123
16790SOL    HW254165   3.999   9.161   5.979
16791SOL     OW54166   4.851   8.789   7.276
16791SOL    HW154167   4.898   8.789   7.364
16791SOL    HW254168   4.803   8.702   7.265
16792SOL     OW54169   3.954   8.882   6.124
16792SOL    HW154170   3.928   8.978   6.124
16792SOL    HW254171   3.883   8.828   6.169
16793SOL     OW54172   3.964   8.539   6.472
16793SOL    HW154173   3.978   8.455   6.524
16793SOL    HW254174   3.909   8.603   6.527
16794SOL     OW54175   4.344   9.234   7.025
16794SOL    HW154176   4.252   9.217   7.060
16794SOL    HW254177   4.372   9.326   7.051
16795SOL     OW54178   4.330   8.412   5.709
16795SOL    HW154179   4.337   8.496   5.655
16795SOL    HW254180   4.376   8.425   5.797
16796SOL     OW54181   5.318   7.562   7.066
16796SOL    HW154182   5.300   7.629   6.994
16796SOL    HW254183   5.315   7.608   7.155
16797SOL     OW54184   3.846   8.091   6.149
16797SOL    HW154185   3.801   8.003   6.166
16797SOL    HW254186   3.845   8.145   6.233
16798SOL     OW54187   5.566   9.215   5.945
16798SOL    HW154188   5.620   9.186   6.025
16798SOL    HW254189   5.596   9.305   5.916
16799SOL     OW54190   3.751   9.044   5.703
16799SOL    HW154191   3.732   8.948   5.724
16799SOL    HW254192   3.718   9.102   5.778
16800SOL     OW54193   5.413   8.370   6.198
16800SOL    HW154194   5.508   8.341   6.206
16800SOL    HW254195   5.405   8.435   6.123
16801SOL     OW54196   5.365   8.556   6.018
16801SOL    HW154197   5.451   8.558   5.966
16801SOL    HW254198   5.379   8.603   6.106
16802SOL     OW54199   3.837   8.185   7.183
16802SOL    HW154200   3.925   8.172   7.228
16802SOL    HW254201   3.824   8.282   7.161
16803SOL     OW54202   4.337   8.813   6.312
16803SOL    HW154203   4.288   8.726   6.321
16803SOL    HW254204   4.314   8.856   6.225
16804SOL     OW54205   5.017   8.676   7.009
16804SOL    HW154206   5.054   8.603   6.951
16804SOL    HW254207   5.069   8.681   7.094
16805SOL     OW54208   4.533   7.452   6.088
16805SOL    HW154209   4.573   7.543   6.079
16805SOL    HW254210   4.433   7.460   6.094
16806SOL     OW54211   3.921   8.424   6.850
16806SOL    HW154212   4.010   8.379   6.836
16806SOL    HW254213   3.848   8.359   6.831
16807SOL     OW54214   5.249   8.447   5.776
16807SOL    HW154215   5.186   8.371   5.789
16807SOL    HW254216   5.297   8.465   5.862
16808SOL     OW54217   4.911   9.240   7.202
16808SOL    HW154218   4.935   9.300   7.126
16808SOL    HW254219   4.918   9.145   7.172
16809SOL     OW54220   4.041   7.699   7.387
16809SOL    HW154221   4.112   7.770   7.393
16809SOL    HW254222   3.953   7.738   7.415
16810SOL     OW54223   5.190   8.865   6.539
16810SOL    HW154224   5.131   8.871   6.619
16810SOL    HW254225   5.175   8.777   6.493
16811SOL     OW54226   5.391   9.162   6.158
16811SOL    HW154227   5.350   9.139   6.070
16811SOL    HW254228   5.373   9.088   6.223
16812SOL     OW54229   4.322   8.177   5.856
16812SOL    HW154230   4.346   8.246   5.788
16812SOL    HW254231   4.244   8.210   5.910
16813SOL     OW54232   5.005   7.793   6.530
16813SOL    HW154233   4.919   7.743   6.517
16813SOL    HW254234   5.067   7.739   6.586
16814SOL     OW54235   5.300   9.110   5.893
16814SOL    HW154236   5.389   9.156   5.896
16814SOL    HW254237   5.279   9.086   5.798
16815SOL     OW54238   5.118   7.917   7.260
16815SOL    HW154239   5.098   7.960   7.348
16815SOL    HW254240   5.196   7.855   7.269
16816SOL     OW54241   4.697   8.338   7.158
16816SOL    HW154242   4.743   8.254   7.129
16816SOL    HW254243   4.641   8.372   7.083
16817SOL     OW54244   4.765   8.149   6.015
16817SOL    HW154245   4.791   8.145   6.111
16817SOL    HW254246   4.680   8.098   6.001
16818SOL     OW54247   3.800   8.259   6.375
16818SOL    HW154248   3.899   8.247   6.384
16818SOL    HW254249   3.776   8.354   6.396
16819SOL     OW54250   3.854   9.269   7.157
16819SOL    HW154251   3.844   9.254   7.256
16819SOL    HW254252   3.768   9.305   7.121
16820SOL     OW54253   4.589   7.796   5.781
16820SOL    HW154254   4.648   7.859   5.732
16820SOL    HW254255   4.608   7.702   5.752
16821SOL     OW54256   5.086   8.592   6.131
16821SOL    HW154257   5.169   8.563   6.083
16821SOL    HW254258   5.037   8.659   6.075
16822SOL     OW54259   4.274   7.644   6.471
16822SOL    HW154260   4.269   7.639   6.571
16822SOL    HW254261   4.276   7.740   6.442
16823SOL     OW54262   4.732   8.904   6.063
16823SOL    HW154263   4.686   8.976   6.011
16823SOL    HW254264   4.728   8.924   6.161
16824SOL     OW54265   4.075   9.249   6.439
16824SOL    HW154266   4.125   9.163   6.445
16824SOL    HW254267   4.140   9.326   6.436
16825SOL     OW54268   5.519   8.514   6.459
16825SOL    HW154269   5.457   8.499   6.383
16825SOL    HW254270   5.467   8.525   6.544
16826SOL     OW54271   4.951   8.998   7.092
16826SOL    HW154272   4.957   8.921   7.156
16826SOL    HW254273   4.899   8.972   7.012
16827SOL     OW54274   4.045   8.391   5.828
16827SOL    HW154275   4.127   8.430   5.786
16827SOL    HW254276   4.018   8.309   5.779
16828SOL     OW54277   5.182   8.183   6.314
16828SOL    HW154278   5.177   8.118   6.389
16828SOL    HW254279   5.262   8.242   6.327
16829SOL     OW54280   4.185   8.714   7.313
16829SOL    HW154281   4.135   8.715   7.227
16829SOL    HW254282   4.122   8.696   7.389
16830SOL     OW54283   4.835   9.224   5.823
16830SOL    HW154284   4.775   9.162   5.873
16830SOL    HW254285   4.866   9.180   5.738
16831SOL     OW54286   3.926   7.733   7.084
16831SOL    HW154287   3.846   7.793   7.071
16831SOL    HW254288   3.916   7.684   7.170
16832SOL     OW54289   5.356   8.825   5.667
16832SOL    HW154290   5.324   8.919   5.657
16832SOL    HW254291   5.280   8.762   5.655
16833SOL     OW54292   4.188   9.191   5.909
16833SOL    HW154293   4.221   9.230   5.995
16833SOL    HW254294   4.264   9.184   5.844
16834SOL     OW54295   5.124   7.555   6.012
16834SOL    HW154296   5.100   7.518   5.922
16834SOL    HW254297   5.223   7.571   6.016
16835SOL     OW54298   3.973   9.233   6.827
16835SOL    HW154299   4.030   9.168   6.877
16835SOL    HW254300   3.957   9.200   6.734
16836SOL     OW54301   4.664   9.146   6.490
16836SOL    HW154302   4.744   9.089   6.511
16836SOL    HW254303   4.615   9.106   6.413
16837SOL     OW54304   4.106   8.148   6.066
16837SOL    HW154305   4.151   8.058   6.063
16837SOL    HW254306   4.012   8.137   6.099
16838SOL     OW54307   5.271   7.670   7.315
16838SOL    HW154308   5.266   7.707   7.407
16838SOL    HW254309   5.199   7.601   7.303
16839SOL     OW54310   4.338   7.570   5.703
16839SOL    HW154311   4.436   7.548   5.710
16839SOL    HW254312   4.307   7.553   5.610
16840SOL     OW54313   4.505   7.712   7.335
16840SOL    HW154314   4.572   7.651   7.378
16840SOL    HW254315   4.432   7.731   7.400
16841SOL     OW54316   4.612   8.962   6.781
16841SOL    HW154317   4.589   8.937   6.687
16841SOL    HW254318   4.673   8.893   6.820
16842SOL     OW54319   5.075   8.038   7.019
16842SOL    HW154320   5.103   7.995   7.104
16842SOL    HW254321   5.100   8.134   7.020
16843SOL     OW54322   4.527   8.850   6.510
16843SOL    HW154323   4.617   8.864   6.468
16843SOL    HW254324   4.456   8.852   6.439
16844SOL     OW54325   4.646   7.951   6.485
16844SOL    HW154326   4.621   7.942   6.389
16844SOL    HW254327   4.694   7.869   6.516
16845SOL     OW54328   4.263   7.512   6.098
16845SOL    HW154329   4.182   7.513   6.156
16845SOL    HW254330   4.266   7.595   6.043
16846SOL     OW54331   5.158   8.636   5.627
16846SOL    HW154332   5.190   8.560   5.684
16846SOL    HW254333   5.066   8.663   5.657
16847SOL     OW54334   4.021   7.483   5.757
16847SOL    HW154335   4.070   7.567   5.736
16847SOL    HW254336   4.083   7.418   5.802
16848SOL     OW54337   4.659   7.684   6.066
16848SOL    HW154338   4.611   7.725   5.988
16848SOL    HW254339   4.758   7.682   6.047
16849SOL     OW54340   4.951   9.018   6.379
16849SOL    HW154341   4.972   9.092   6.314
16849SOL    HW254342   5.019   9.018   6.452
16850SOL     OW54343   4.183   8.600   6.327
16850SOL    HW154344   4.112   8.573   6.392
16850SOL    HW254345   4.157   8.572   6.234
16851SOL     OW54346   4.756   7.997   5.602
16851SOL    HW154347   4.715   8.079   5.563
16851SOL    HW254348   4.820   8.023   5.675
16852SOL     OW54349   3.802   8.004   6.972
16852SOL    HW154350   3.894   8.003   6.931
16852SOL    HW254351   3.796   8.078   7.039
16853SOL     OW54352   4.285   7.670   6.733
16853SOL    HW154353   4.323   7.586   6.770
16853SOL    HW254354   4.197   7.689   6.777
16854SOL     OW54355   4.590   7.902   6.228
16854SOL    HW154356   4.558   7.974   6.166
16854SOL    HW254357   4.614   7.821   6.175
16855SOL     OW54358   4.741   7.487   6.339
16855SOL    HW154359   4.669   7.492   6.270
16855SOL    HW254360   4.717   7.418   6.408
16856SOL     OW54361   5.153   8.621   6.453
16856SOL    HW154362   5.098   8.537   6.446
16856SOL    HW254363   5.179   8.650   6.361
16857SOL     OW54364   5.190   8.038   6.578
16857SOL    HW154365   5.160   7.943   6.585
16857SOL    HW254366   5.263   8.054   6.644
16858SOL     OW54367   5.581   8.281   5.963
16858SOL    HW154368   5.623   8.217   6.027
16858SOL    HW254369   5.543   8.230   5.885
16859SOL     OW54370   4.212   8.833   5.760
16859SOL    HW154371   4.125   8.818   5.807
16859SOL    HW254372   4.195   8.859   5.665
16860SOL     OW54373   5.388   8.728   6.243
16860SOL    HW154374   5.487   8.736   6.257
16860SOL    HW254375   5.343   8.812   6.274
16861SOL     OW54376   5.114   8.023   5.664
16861SOL    HW154377   5.060   8.002   5.745
16861SOL    HW254378   5.205   7.982   5.673
16862SOL     OW54379   4.251   7.704   5.914
16862SOL    HW154380   4.278   7.645   5.839
16862SOL    HW254381   4.251   7.799   5.883
16863SOL     OW54382   5.478   8.671   7.174
16863SOL    HW154383   5.569   8.632   7.161
16863SOL    HW254384   5.486   8.767   7.198
16864SOL     OW54385   4.788   8.795   6.926
16864SOL    HW154386   4.708   8.772   6.981
16864SOL    HW254387   4.871   8.769   6.975
16865SOL     OW54388   5.316   9.077   7.211
16865SOL    HW154389   5.343   9.111   7.121
16865SOL    HW254390   5.395   9.039   7.257
16866SOL     OW54391   5.362   8.547   6.665
16866SOL    HW154392   5.367   8.628   6.724
16866SOL    HW254393   5.276   8.549   6.614
16867SOL     OW54394   4.639   7.537   6.988
16867SOL    HW154395   4.664   7.517   6.893
16867SOL    HW254396   4.711   7.593   7.030
16868SOL     OW54397   4.704   8.564   7.305
16868SOL    HW154398   4.605   8.570   7.315
16868SOL    HW254399   4.727   8.484   7.249
16869SOL     OW54400   4.429   8.498   5.954
16869SOL    HW154401   4.415   8.505   6.053
16869SOL    HW254402   4.513   8.447   5.936
16870SOL     OW54403   4.134   8.261   6.837
16870SOL    HW154404   4.220   8.273   6.887
16870SOL    HW254405   4.092   8.174   6.864
16871SOL     OW54406   4.998   7.834   6.848
16871SOL    HW154407   5.019   7.908   6.912
16871SOL    HW254408   4.909   7.851   6.805
16872SOL     OW54409   3.788   9.012   6.917
16872SOL    HW154410   3.742   9.094   6.883
16872SOL    HW254411   3.886   9.031   6.926
16873SOL     OW54412   4.091   8.548   6.087
16873SOL    HW154413   4.084   8.631   6.031
16873SOL    HW254414   4.095   8.468   6.027
16874SOL     OW54415   4.290   7.985   6.451
16874SOL    HW154416   4.302   8.051   6.377
16874SOL    HW254417   4.336   8.019   6.534
16875SOL     OW54418   4.976   8.796   5.974
16875SOL    HW154419   5.026   8.873   6.014
16875SOL    HW254420   4.881   8.798   6.006
16876SOL     OW54421   4.996   8.893   6.728
16876SOL    HW154422   5.043   8.906   6.815
16876SOL    HW254423   4.930   8.819   6.737
16877SOL     OW54424   5.306   8.087   6.058
16877SOL    HW154425   5.275   8.148   6.131
16877SOL    HW254426   5.356   8.139   5.989
16878SOL     OW54427   4.078   8.958   6.915
16878SOL    HW154428   4.057   8.914   6.828
16878SOL    HW254429   4.175   8.984   6.918
16879SOL     OW54430   4.126   8.199   7.184
16879SOL    HW154431   4.194   8.254   7.137
16879SOL    HW254432   4.166   8.111   7.211
16880SOL     OW54433   4.737   7.553   7.356
16880SOL    HW154434   4.743   7.638   7.304
16880SOL    HW254435   4.769   7.477   7.299
16881SOL     OW54436   4.228   7.498   7.326
16881SOL    HW154437   4.186   7.441   7.256
16881SOL    HW254438   4.162   7.567   7.358
16882SOL     OW54439   4.297   8.318   6.615
16882SOL    HW154440   4.341   8.407   6.606
16882SOL    HW254441   4.234   8.318   6.692
16883SOL     OW54442   4.933   7.973   5.861
16883SOL    HW154443   4.946   7.889   5.915
16883SOL    HW254444   4.904   8.047   5.921
16884SOL     OW54445   4.031   7.661   6.817
16884SOL    HW154446   4.008   7.698   6.907
16884SOL    HW254447   4.001   7.566   6.811
16885SOL     OW54448   3.761   8.758   6.868
16885SOL    HW154449   3.814   8.709   6.936
16885SOL    HW254450   3.783   8.856   6.873
16886SOL     OW54451   4.456   8.082   6.650
16886SOL    HW154452   4.515   8.056   6.574
16886SOL    HW254453   4.428   8.178   6.639
16887SOL     OW54454   4.031   7.511   6.204
16887SOL    HW154455   4.020   7.605   6.237
16887SOL    HW254456   4.026   7.448   6.281
16888SOL     OW54457   5.346   7.815   5.960
16888SOL    HW154458   5.348   7.739   6.024
16888SOL    HW254459   5.298   7.892   6.000
16889SOL     OW54460   4.704   9.021   7.286
16889SOL    HW154461   4.684   9.065   7.198
16889SOL    HW254462   4.743   8.930   7.270
16890SOL     OW54463   4.074   8.346   7.390
16890SOL    HW154464   4.150   8.390   7.438
16890SOL    HW254465   4.109   8.299   7.308
16891SOL     OW54466   5.264   7.722   5.711
16891SOL    HW154467   5.203   7.647   5.734
16891SOL    HW254468   5.286   7.774   5.794
16892SOL     OW54469   5.027   8.286   5.628
16892SOL    HW154470   5.061   8.193   5.643
16892SOL    HW254471   5.045   8.313   5.533
16893SOL     OW54472   4.792   8.781   6.435
16893SOL    HW154473   4.799   8.697   6.380
16893SOL    HW254474   4.854   8.850   6.399
16894SOL     OW54475   4.043   8.258   6.535
16894SOL    HW154476   4.136   8.294   6.540
16894SOL    HW254477   4.037   8.173   6.587
16895SOL     OW54478   4.063   7.957   6.592
16895SOL    HW154479   4.011   7.874   6.575
16895SOL    HW254480   4.140   7.962   6.528
16896SOL     OW54481   4.862   7.828   7.264
16896SOL    HW154482   4.817   7.891   7.328
16896SOL    HW254483   4.955   7.859   7.247
16897SOL     OW54484   4.884   7.655   7.063
16897SOL    HW154485   4.884   7.719   7.140
16897SOL    HW254486   4.912   7.703   6.980
16898SOL     OW54487   3.732   8.774   5.786
16898SOL    HW154488   3.639   8.795   5.755
16898SOL    HW254489   3.742   8.675   5.799
16899SOL     OW54490   3.812   9.249   6.513
16899SOL    HW154491   3.770   9.163   6.486
16899SOL    HW254492   3.906   9.252   6.479
16900SOL     OW54493   4.228   9.016   6.496
16900SOL    HW154494   4.294   9.090   6.505
16900SOL    HW254495   4.272   8.937   6.454
16901SOL     OW54496   3.764   7.992   6.700
16901SOL    HW154497   3.849   7.959   6.659
16901SOL    HW254498   3.777   8.007   6.798
16902SOL     OW54499   3.913   7.968   7.308
16902SOL    HW154500   3.972   7.928   7.238
16902SOL    HW254501   3.855   8.039   7.267
16903SOL     OW54502   5.093   8.398   7.246
16903SOL    HW154503   5.132   8.487   7.266
16903SOL    HW254504   5.103   8.378   7.149
16904SOL     OW54505   4.539   8.020   5.911
16904SOL    HW154506   4.546   7.931   5.865
16904SOL    HW254507   4.445   8.054   5.903
16905SOL     OW54508   3.976   9.012   7.330
16905SOL    HW154509   3.946   9.069   7.406
16905SOL    HW254510   3.969   8.915   7.356
16906SOL     OW54511   4.395   7.912   6.855
16906SOL    HW154512   4.361   7.823   6.825
16906SOL    HW254513   4.421   7.966   6.775
16907SOL     OW54514   4.654   9.126   7.051
16907SOL    HW154515   4.630   9.108   6.956
16907SOL    HW254516   4.684   9.220   7.061
16908SOL     OW54517   4.197   7.948   5.777
16908SOL    HW154518   4.258   8.028   5.781
16908SOL    HW254519   4.102   7.979   5.784
16909SOL     OW54520   3.883   8.585   7.052
16909SOL    HW154521   3.905   8.524   7.128
16909SOL    HW254522   3.893   8.536   6.966
16910SOL     OW54523   5.026   8.303   5.895
16910SOL    HW154524   4.940   8.272   5.937
16910SOL    HW254525   5.022   8.289   5.796
16911SOL     OW54526   5.483   9.195   6.740
16911SOL    HW154527   5.544   9.225   6.667
16911SOL    HW254528   5.445   9.106   6.718
16912SOL     OW54529   4.976   9.179   6.714
16912SOL    HW154530   5.060   9.184   6.660
16912SOL    HW254531   4.953   9.083   6.732
16913SOL     OW54532   3.807   8.706   6.608
16913SOL    HW154533   3.802   8.705   6.708
16913SOL    HW254534   3.724   8.665   6.570
16914SOL     OW54535   4.412   9.110   7.302
16914SOL    HW154536   4.356   9.191   7.311
16914SOL    HW254537   4.464   9.114   7.216
16915SOL     OW54538   5.450   7.583   6.109
16915SOL    HW154539   5.523   7.566   6.042
16915SOL    HW254540   5.419   7.496   6.147
16916SOL     OW54541   5.112   9.021   6.063
16916SOL    HW154542   5.179   9.033   5.989
16916SOL    HW254543   5.072   9.110   6.086
16917SOL     OW54544   3.854   9.242   7.437
16917SOL    HW154545   3.813   9.168   7.490
16917SOL    HW254546   3.918   9.293   7.495
16918SOL     OW54547   5.004   8.375   6.258
16918SOL    HW154548   5.064   8.294   6.260
16918SOL    HW254549   5.044   8.444   6.198
16919SOL     OW54550   4.554   8.721   7.008
16919SOL    HW154551   4.549   8.754   7.103
16919SOL    HW254552   4.468   8.740   6.962
16920SOL     OW54553   4.396   9.064   5.740
16920SOL    HW154554   4.405   9.074   5.641
16920SOL    HW254555   4.356   8.975   5.761
16921SOL     OW54556   5.374   9.168   6.980
16921SOL    HW154557   5.427   9.178   6.896
16921SOL    HW254558   5.347   9.258   7.014
16922SOL     OW54559   5.565   7.623   6.549
16922SOL    HW154560   5.604   7.538   6.513
16922SOL    HW254561   5.467   7.625   6.530
16923SOL     OW54562   3.987   7.774   6.306
16923SOL    HW154563   3.908   7.825   6.272
16923SOL    HW254564   3.978   7.759   6.404
16924SOL     OW54565   4.918   9.060   5.617
16924SOL    HW154566   4.924   8.967   5.654
16924SOL    HW254567   4.859   9.060   5.537
16925SOL     OW54568   4.546   8.450   6.958
16925SOL    HW154569   4.586   8.449   6.866
16925SOL    HW254570   4.556   8.542   6.998
16926SOL     OW54571   4.640   8.358   5.877
16926SOL    HW154572   4.703   8.396   5.809
16926SOL    HW254573   4.680   8.275   5.916
16927SOL     OW54574   5.228   9.055   5.630
16927SOL    HW154575   5.136   9.092   5.637
16927SOL    HW254576   5.266   9.075   5.540
16928SOL     OW54577   4.096   8.736   7.076
16928SOL    HW154578   4.083   8.829   7.042
16928SOL    HW254579   4.012   8.684   7.063
16929SOL     OW54580   5.338   8.740   6.875
16929SOL    HW154581   5.398   8.743   6.955
16929SOL    HW254582   5.263   8.804   6.888
16930SOL     OW54583   4.763   8.546   6.282
16930SOL    HW154584   4.693   8.499   6.336
16930SOL    HW254585   4.822   8.478   6.239
16931SOL     OW54586   4.738   7.684   6.557
16931SOL    HW154587   4.730   7.648   6.464
16931SOL    HW254588   4.736   7.608   6.622
16932SOL     OW54589   4.314   8.935   6.077
16932SOL    HW154590   4.356   8.877   6.007
16932SOL    HW254591   4.270   9.014   6.033
16933SOL     OW54592   3.979   8.796   5.876
16933SOL    HW154593   3.883   8.797   5.849
16933SOL    HW254594   3.991   8.849   5.960
16934SOL     OW54595   3.829   8.461   7.312
16934SOL    HW154596   3.752   8.428   7.366
16934SOL    HW254597   3.914   8.431   7.354
16935SOL     OW54598   3.799   7.793   5.619
16935SOL    HW154599   3.707   7.765   5.590
16935SOL    HW254600   3.830   7.870   5.563
16936SOL     OW54601   3.796   7.614   5.904
16936SOL    HW154602   3.779   7.697   5.850
16936SOL    HW254603   3.886   7.577   5.882
16937SOL     OW54604   4.907   8.783   5.705
16937SOL    HW154605   4.808   8.772   5.707
16937SOL    HW254606   4.941   8.798   5.798
16938SOL     OW54607   4.337   8.290   7.017
16938SOL    HW154608   4.393   8.371   7.000
16938SOL    HW254609   4.396   8.210   7.020
16939SOL     OW54610   5.217   9.215   6.545
16939SOL    HW154611   5.250   9.279   6.476
16939SOL    HW254612   5.283   9.209   6.620
16940SOL     OW54613   5.174   8.668   7.219
16940SOL    HW154614   5.165   8.658   7.318
16940SOL    HW254615   5.270   8.661   7.193
16941SOL     OW54616   4.114   9.189   7.146
16941SOL    HW154617   4.023   9.230   7.144
16941SOL    HW254618   4.107   9.095   7.178
16942SOL     OW54619   4.949   7.773   6.035
16942SOL    HW154620   5.014   7.699   6.024
16942SOL    HW254621   4.969   7.823   6.119
16943SOL     OW54622   4.318   8.193   6.238
16943SOL    HW154623   4.368   8.278   6.219
16943SOL    HW254624   4.230   8.195   6.190
16944SOL     OW54625   5.501   7.790   7.228
16944SOL    HW154626   5.484   7.821   7.134
16944SOL    HW254627   5.417   7.753   7.266
16945SOL     OW54628   5.454   8.382   7.103
16945SOL    HW154629   5.492   8.473   7.118
16945SOL    HW254630   5.446   8.365   7.004
16946SOL     OW54631   4.583   8.822   5.602
16946SOL    HW154632   4.537   8.837   5.690
16946SOL    HW254633   4.627   8.907   5.572
16947SOL     OW54634   4.385   9.238   6.539
16947SOL    HW154635   4.339   9.326   6.526
16947SOL    HW254636   4.484   9.250   6.532
16948SOL     OW54637   4.807   8.432   5.673
16948SOL    HW154638   4.784   8.485   5.591
16948SOL    HW254639   4.888   8.376   5.654
16949SOL     OW54640   5.585   9.017   6.437
16949SOL    HW154641   5.514   9.005   6.367
16949SOL    HW254642   5.586   8.938   6.497
16950SOL     OW54643   3.945   8.762   7.430
16950SOL    HW154644   3.880   8.689   7.409
16950SOL    HW254645   3.949   8.776   7.528
16951SOL     OW54646   3.803   8.688   6.239
16951SOL    HW154647   3.802   8.641   6.327
16951SOL    HW254648   3.885   8.660   6.188
16952SOL     OW54649   4.396   8.839   7.210
16952SOL    HW154650   4.318   8.789   7.248
16952SOL    HW254651   4.393   8.934   7.241
16953SOL     OW54652   5.548   7.640   6.813
16953SOL    HW154653   5.544   7.550   6.857
16953SOL    HW254654   5.551   7.629   6.714
16954SOL     OW54655   4.152   7.872   6.106
16954SOL    HW154656   4.182   7.800   6.044
16954SOL    HW254657   4.113   7.832   6.189
16955SOL     OW54658   5.429   8.935   6.690
16955SOL    HW154659   5.336   8.910   6.663
16955SOL    HW254660   5.455   8.885   6.772
16956SOL     OW54661   4.041   7.995   6.866
16956SOL    HW154662   4.079   7.936   6.938
16956SOL    HW254663   4.081   7.969   6.778
16957SOL     OW54664   4.536   9.034   6.273
16957SOL    HW154665   4.568   9.044   6.179
16957SOL    HW254666   4.457   8.972   6.275
16958SOL     OW54667   5.148   7.662   6.698
16958SOL    HW154668   5.200   7.597   6.753
16958SOL    HW254669   5.099   7.725   6.759
16959SOL     OW54670   4.725   7.482   6.740
16959SOL    HW154671   4.662   7.410   6.709
16959SOL    HW254672   4.818   7.446   6.740
16960SOL     OW54673   4.494   8.778   5.887
16960SOL    HW154674   4.448   8.691   5.904
16960SOL    HW254675   4.585   8.775   5.928
16961SOL     OW54676   4.342   9.015   6.870
16961SOL    HW154677   4.337   9.097   6.927
16961SOL    HW254678   4.431   9.012   6.825
16962SOL     OW54679   5.076   7.500   5.754
16962SOL    HW154680   5.111   7.459   5.670
16962SOL    HW254681   4.986   7.462   5.774
16963SOL     OW54682   5.024   7.901   6.277
16963SOL    HW154683   4.965   7.981   6.281
16963SOL    HW254684   5.039   7.866   6.370
16964SOL     OW54685   5.317   7.669   6.468
16964SOL    HW154686   5.233   7.668   6.522
16964SOL    HW254687   5.319   7.752   6.412
16965SOL     OW54688   3.763   8.525   5.886
16965SOL    HW154689   3.862   8.514   5.877
16965SOL    HW254690   3.723   8.439   5.918
16966SOL     OW54691   4.599   9.094   5.923
16966SOL    HW154692   4.522   9.059   5.869
16966SOL    HW254693   4.567   9.165   5.985
16967SOL     OW54694   3.954   8.076   7.561
16967SOL    HW154695   3.861   8.074   7.598
16967SOL    HW254696   3.955   8.037   7.469
16968SOL     OW54697   3.949   7.723   8.444
16968SOL    HW154698   3.984   7.706   8.536
16968SOL    HW254699   3.861   7.678   8.432
16969SOL     OW54700   3.743   7.816   8.095
16969SOL    HW154701   3.661   7.859   8.134
16969SOL    HW254702   3.715   7.743   8.032
16970SOL     OW54703   4.293   8.723   8.613
16970SOL    HW154704   4.200   8.716   8.576
16970SOL    HW254705   4.304   8.812   8.657
16971SOL     OW54706   5.279   8.959   8.151
16971SOL    HW154707   5.222   8.943   8.232
16971SOL    HW254708   5.220   8.969   8.071
16972SOL     OW54709   4.859   8.151   8.165
16972SOL    HW154710   4.916   8.229   8.140
16972SOL    HW254711   4.799   8.177   8.241
16973SOL     OW54712   5.479   8.055   7.679
16973SOL    HW154713   5.467   8.042   7.580
16973SOL    HW254714   5.449   7.974   7.728
16974SOL     OW54715   4.492   8.592   8.471
16974SOL    HW154716   4.414   8.609   8.531
16974SOL    HW254717   4.526   8.679   8.435
16975SOL     OW54718   4.409   8.460   8.113
16975SOL    HW154719   4.478   8.444   8.183
16975SOL    HW254720   4.336   8.517   8.151
16976SOL     OW54721   4.059   8.883   8.509
16976SOL    HW154722   3.981   8.852   8.456
16976SOL    HW254723   4.117   8.941   8.452
16977SOL     OW54724   5.184   8.953   8.787
16977SOL    HW154725   5.208   9.047   8.813
16977SOL    HW254726   5.168   8.899   8.869
16978SOL     OW54727   4.162   7.840   8.947
16978SOL    HW154728   4.244   7.784   8.956
16978SOL    HW254729   4.081   7.782   8.951
16979SOL     OW54730   5.327   7.895   8.185
16979SOL    HW154731   5.253   7.941   8.135
16979SOL    HW254732   5.378   7.963   8.238
16980SOL     OW54733   3.955   9.161   7.931
16980SOL    HW154734   3.989   9.238   7.985
16980SOL    HW254735   3.999   9.161   7.841
16981SOL     OW54736   4.851   8.789   9.138
16981SOL    HW154737   4.898   8.789   9.226
16981SOL    HW254738   4.803   8.702   9.127
16982SOL     OW54739   3.954   8.882   7.986
16982SOL    HW154740   3.928   8.978   7.986
16982SOL    HW254741   3.883   8.828   8.031
16983SOL     OW54742   4.344   9.234   8.887
16983SOL    HW154743   4.252   9.217   8.922
16983SOL    HW254744   4.372   9.326   8.913
16984SOL     OW54745   4.330   8.412   7.571
16984SOL    HW154746   4.337   8.496   7.517
16984SOL    HW254747   4.376   8.425   7.659
16985SOL     OW54748   5.318   7.562   8.928
16985SOL    HW154749   5.300   7.629   8.856
16985SOL    HW254750   5.315   7.608   9.017
16986SOL     OW54751   3.846   8.091   8.011
16986SOL    HW154752   3.801   8.003   8.028
16986SOL    HW254753   3.845   8.145   8.095
16987SOL     OW54754   5.566   9.215   7.807
16987SOL    HW154755   5.620   9.186   7.887
16987SOL    HW254756   5.596   9.305   7.778
16988SOL     OW54757   3.751   9.044   7.565
16988SOL    HW154758   3.732   8.948   7.586
16988SOL    HW254759   3.718   9.102   7.640
16989SOL     OW54760   5.413   8.370   8.060
16989SOL    HW154761   5.508   8.341   8.068
16989SOL    HW254762   5.405   8.435   7.985
16990SOL     OW54763   5.365   8.556   7.880
16990SOL    HW154764   5.451   8.558   7.828
16990SOL    HW254765   5.379   8.603   7.968
16991SOL     OW54766   3.837   8.185   9.045
16991SOL    HW154767   3.925   8.172   9.090
16991SOL    HW254768   3.824   8.282   9.023
16992SOL     OW54769   4.337   8.813   8.174
16992SOL    HW154770   4.288   8.726   8.183
16992SOL    HW254771   4.314   8.856   8.087
16993SOL     OW54772   5.017   8.676   8.871
16993SOL    HW154773   5.054   8.603   8.813
16993SOL    HW254774   5.069   8.681   8.956
16994SOL     OW54775   4.533   7.452   7.950
16994SOL    HW154776   4.573   7.543   7.941
16994SOL    HW254777   4.433   7.460   7.956
16995SOL     OW54778   3.921   8.424   8.712
16995SOL    HW154779   4.010   8.379   8.698
16995SOL    HW254780   3.848   8.359   8.693
16996SOL     OW54781   5.249   8.447   7.638
16996SOL    HW154782   5.186   8.371   7.651
16996SOL    HW254783   5.297   8.465   7.724
16997SOL     OW54784   4.911   9.240   9.064
16997SOL    HW154785   4.935   9.300   8.988
16997SOL    HW254786   4.918   9.145   9.034
16998SOL     OW54787   4.041   7.699   9.249
16998SOL    HW154788   4.112   7.770   9.255
16998SOL    HW254789   3.953   7.738   9.277
16999SOL     OW54790   5.190   8.865   8.401
16999SOL    HW154791   5.131   8.871   8.481
16999SOL    HW254792   5.175   8.777   8.355
17000SOL     OW54793   5.391   9.162   8.020
17000SOL    HW154794   5.350   9.139   7.932
17000SOL    HW254795   5.373   9.088   8.085
17001SOL     OW54796   4.322   8.177   7.718
17001SOL    HW154797   4.346   8.246   7.650
17001SOL    HW254798   4.244   8.210   7.772
17002SOL     OW54799   5.005   7.793   8.392
17002SOL    HW154800   4.919   7.743   8.379
17002SOL    HW254801   5.067   7.739   8.448
17003SOL     OW54802   5.300   9.110   7.755
17003SOL    HW154803   5.389   9.156   7.758
17003SOL    HW254804   5.279   9.086   7.660
17004SOL     OW54805   4.697   8.338   9.020
17004SOL    HW154806   4.743   8.254   8.991
17004SOL    HW254807   4.641   8.372   8.945
17005SOL     OW54808   4.715   7.858   8.690
17005SOL    HW154809   4.638   7.892   8.744
17005SOL    HW254810   4.681   7.807   8.611
17006SOL     OW54811   4.765   8.149   7.877
17006SOL    HW154812   4.791   8.145   7.973
17006SOL    HW254813   4.680   8.098   7.863
17007SOL     OW54814   3.800   8.259   8.237
17007SOL    HW154815   3.899   8.247   8.246
17007SOL    HW254816   3.776   8.354   8.258
17008SOL     OW54817   4.589   7.796   7.643
17008SOL    HW154818   4.648   7.859   7.594
17008SOL    HW254819   4.608   7.702   7.614
17009SOL     OW54820   5.086   8.592   7.993
17009SOL    HW154821   5.169   8.563   7.945
17009SOL    HW254822   5.037   8.659   7.937
17010SOL     OW54823   4.274   7.644   8.333
17010SOL    HW154824   4.269   7.639   8.433
17010SOL    HW254825   4.276   7.740   8.304
17011SOL     OW54826   4.732   8.904   7.925
17011SOL    HW154827   4.686   8.976   7.873
17011SOL    HW254828   4.728   8.924   8.023
17012SOL     OW54829   4.075   9.249   8.301
17012SOL    HW154830   4.125   9.163   8.307
17012SOL    HW254831   4.140   9.326   8.298
17013SOL     OW54832   5.519   8.514   8.321
17013SOL    HW154833   5.457   8.499   8.245
17013SOL    HW254834   5.467   8.525   8.406
17014SOL     OW54835   4.951   8.998   8.954
17014SOL    HW154836   4.957   8.921   9.018
17014SOL    HW254837   4.899   8.972   8.874
17015SOL     OW54838   4.045   8.391   7.690
17015SOL    HW154839   4.127   8.430   7.648
17015SOL    HW254840   4.018   8.309   7.641
17016SOL     OW54841   5.182   8.183   8.176
17016SOL    HW154842   5.177   8.118   8.251
17016SOL    HW254843   5.262   8.242   8.189
17017SOL     OW54844   4.185   8.714   9.175
17017SOL    HW154845   4.135   8.715   9.089
17017SOL    HW254846   4.122   8.696   9.251
17018SOL     OW54847   4.835   9.224   7.685
17018SOL    HW154848   4.775   9.162   7.735
17018SOL    HW254849   4.866   9.180   7.600
17019SOL     OW54850   3.926   7.733   8.946
17019SOL    HW154851   3.846   7.793   8.933
17019SOL    HW254852   3.916   7.684   9.032
17020SOL     OW54853   5.356   8.825   7.529
17020SOL    HW154854   5.324   8.919   7.519
17020SOL    HW254855   5.280   8.762   7.517
17021SOL     OW54856   4.188   9.191   7.771
17021SOL    HW154857   4.221   9.230   7.857
17021SOL    HW254858   4.264   9.184   7.706
17022SOL     OW54859   5.124   7.555   7.874
17022SOL    HW154860   5.100   7.518   7.784
17022SOL    HW254861   5.223   7.571   7.878
17023SOL     OW54862   3.973   9.233   8.689
17023SOL    HW154863   4.030   9.168   8.739
17023SOL    HW254864   3.957   9.200   8.596
17024SOL     OW54865   4.664   9.146   8.352
17024SOL    HW154866   4.744   9.089   8.373
17024SOL    HW254867   4.615   9.106   8.275
17025SOL     OW54868   4.106   8.148   7.928
17025SOL    HW154869   4.151   8.058   7.925
17025SOL    HW254870   4.012   8.137   7.961
17026SOL     OW54871   4.338   7.570   7.565
17026SOL    HW154872   4.436   7.548   7.572
17026SOL    HW254873   4.307   7.553   7.472
17027SOL     OW54874   4.505   7.712   9.197
17027SOL    HW154875   4.572   7.651   9.240
17027SOL    HW254876   4.432   7.731   9.262
17028SOL     OW54877   4.612   8.962   8.643
17028SOL    HW154878   4.589   8.937   8.549
17028SOL    HW254879   4.673   8.893   8.682
17029SOL     OW54880   5.075   8.038   8.881
17029SOL    HW154881   5.103   7.995   8.966
17029SOL    HW254882   5.100   8.134   8.882
17030SOL     OW54883   4.527   8.850   8.372
17030SOL    HW154884   4.617   8.864   8.330
17030SOL    HW254885   4.456   8.852   8.301
17031SOL     OW54886   4.646   7.951   8.347
17031SOL    HW154887   4.621   7.942   8.251
17031SOL    HW254888   4.694   7.869   8.378
17032SOL     OW54889   4.263   7.512   7.960
17032SOL    HW154890   4.182   7.513   8.018
17032SOL    HW254891   4.266   7.595   7.905
17033SOL     OW54892   5.158   8.636   7.489
17033SOL    HW154893   5.190   8.560   7.546
17033SOL    HW254894   5.066   8.663   7.519
17034SOL     OW54895   4.021   7.483   7.619
17034SOL    HW154896   4.070   7.567   7.598
17034SOL    HW254897   4.083   7.418   7.664
17035SOL     OW54898   4.659   7.684   7.928
17035SOL    HW154899   4.611   7.725   7.850
17035SOL    HW254900   4.758   7.682   7.909
17036SOL     OW54901   4.800   8.131   8.912
17036SOL    HW154902   4.720   8.070   8.915
17036SOL    HW254903   4.881   8.078   8.888
17037SOL     OW54904   4.951   9.018   8.241
17037SOL    HW154905   4.972   9.092   8.176
17037SOL    HW254906   5.019   9.018   8.314
17038SOL     OW54907   4.995   9.245   8.039
17038SOL    HW154908   5.039   9.309   7.975
17038SOL    HW254909   4.945   9.297   8.109
17039SOL     OW54910   4.756   7.997   7.464
17039SOL    HW154911   4.715   8.079   7.425
17039SOL    HW254912   4.820   8.023   7.537
17040SOL     OW54913   3.802   8.004   8.834
17040SOL    HW154914   3.894   8.003   8.793
17040SOL    HW254915   3.796   8.078   8.901
17041SOL     OW54916   4.285   7.670   8.595
17041SOL    HW154917   4.323   7.586   8.632
17041SOL    HW254918   4.197   7.689   8.639
17042SOL     OW54919   4.590   7.902   8.090
17042SOL    HW154920   4.558   7.974   8.028
17042SOL    HW254921   4.614   7.821   8.037
17043SOL     OW54922   4.741   7.487   8.201
17043SOL    HW154923   4.669   7.492   8.132
17043SOL    HW254924   4.717   7.418   8.270
17044SOL     OW54925   5.153   8.621   8.315
17044SOL    HW154926   5.098   8.537   8.308
17044SOL    HW254927   5.179   8.650   8.223
17045SOL     OW54928   5.190   8.038   8.440
17045SOL    HW154929   5.160   7.943   8.447
17045SOL    HW254930   5.263   8.054   8.506
17046SOL     OW54931   5.581   8.281   7.825
17046SOL    HW154932   5.623   8.217   7.889
17046SOL    HW254933   5.543   8.230   7.747
17047SOL     OW54934   4.212   8.833   7.622
17047SOL    HW154935   4.125   8.818   7.669
17047SOL    HW254936   4.195   8.859   7.527
17048SOL     OW54937   5.388   8.728   8.105
17048SOL    HW154938   5.487   8.736   8.119
17048SOL    HW254939   5.343   8.812   8.136
17049SOL     OW54940   5.114   8.023   7.526
17049SOL    HW154941   5.060   8.002   7.607
17049SOL    HW254942   5.205   7.982   7.535
17050SOL     OW54943   4.251   7.704   7.776
17050SOL    HW154944   4.278   7.645   7.701
17050SOL    HW254945   4.251   7.799   7.745
17051SOL     OW54946   5.478   8.671   9.036
17051SOL    HW154947   5.569   8.632   9.023
17051SOL    HW254948   5.486   8.767   9.060
17052SOL     OW54949   4.788   8.795   8.788
17052SOL    HW154950   4.708   8.772   8.843
17052SOL    HW254951   4.871   8.769   8.837
17053SOL     OW54952   5.316   9.077   9.073
17053SOL    HW154953   5.343   9.111   8.983
17053SOL    HW254954   5.395   9.039   9.119
17054SOL     OW54955   4.835   8.643   8.548
17054SOL    HW154956   4.795   8.687   8.629
17054SOL    HW254957   4.794   8.680   8.465
17055SOL     OW54958   5.362   8.547   8.527
17055SOL    HW154959   5.367   8.628   8.586
17055SOL    HW254960   5.276   8.549   8.476
17056SOL     OW54961   4.639   7.537   8.850
17056SOL    HW154962   4.664   7.517   8.755
17056SOL    HW254963   4.711   7.593   8.892
17057SOL     OW54964   4.704   8.564   9.167
17057SOL    HW154965   4.605   8.570   9.177
17057SOL    HW254966   4.727   8.484   9.111
17058SOL     OW54967   4.429   8.498   7.816
17058SOL    HW154968   4.415   8.505   7.915
17058SOL    HW254969   4.513   8.447   7.798
17059SOL     OW54970   4.998   7.834   8.710
17059SOL    HW154971   5.019   7.908   8.774
17059SOL    HW254972   4.909   7.851   8.667
17060SOL     OW54973   3.788   9.012   8.779
17060SOL    HW154974   3.742   9.094   8.745
17060SOL    HW254975   3.886   9.031   8.788
17061SOL     OW54976   4.091   8.548   7.949
17061SOL    HW154977   4.084   8.631   7.893
17061SOL    HW254978   4.095   8.468   7.889
17062SOL     OW54979   4.290   7.985   8.313
17062SOL    HW154980   4.302   8.051   8.239
17062SOL    HW254981   4.336   8.019   8.396
17063SOL     OW54982   4.976   8.796   7.836
17063SOL    HW154983   5.026   8.873   7.876
17063SOL    HW254984   4.881   8.798   7.868
17064SOL     OW54985   4.996   8.893   8.590
17064SOL    HW154986   5.043   8.906   8.677
17064SOL    HW254987   4.930   8.819   8.599
17065SOL     OW54988   5.306   8.087   7.920
17065SOL    HW154989   5.275   8.148   7.993
17065SOL    HW254990   5.356   8.139   7.851
17066SOL     OW54991   4.078   8.958   8.777
17066SOL    HW154992   4.057   8.914   8.690
17066SOL    HW254993   4.175   8.984   8.780
17067SOL     OW54994   5.311   8.227   9.118
17067SOL    HW154995   5.219   8.265   9.113
17067SOL    HW254996   5.371   8.274   9.053
17068SOL     OW54997   4.737   7.553   9.218
17068SOL    HW154998   4.743   7.638   9.166
17068SOL    HW254999   4.769   7.477   9.161
17069SOL     OW55000   4.228   7.498   9.188
17069SOL    HW155001   4.186   7.441   9.118
17069SOL    HW255002   4.162   7.567   9.220
17070SOL     OW55003   5.084   8.310   8.493
17070SOL    HW155004   5.009   8.310   8.427
17070SOL    HW255005   5.121   8.218   8.502
17071SOL     OW55006   4.933   7.973   7.723
17071SOL    HW155007   4.946   7.889   7.777
17071SOL    HW255008   4.904   8.047   7.783
17072SOL     OW55009   4.031   7.661   8.679
17072SOL    HW155010   4.008   7.698   8.769
17072SOL    HW255011   4.001   7.566   8.673
17073SOL     OW55012   3.761   8.758   8.730
17073SOL    HW155013   3.814   8.709   8.798
17073SOL    HW255014   3.783   8.856   8.735
17074SOL     OW55015   4.456   8.082   8.512
17074SOL    HW155016   4.515   8.056   8.436
17074SOL    HW255017   4.428   8.178   8.501
17075SOL     OW55018   5.452   8.383   9.302
17075SOL    HW155019   5.406   8.376   9.213
17075SOL    HW255020   5.390   8.427   9.368
17076SOL     OW55021   4.031   7.511   8.066
17076SOL    HW155022   4.020   7.605   8.099
17076SOL    HW255023   4.026   7.448   8.143
17077SOL     OW55024   5.346   7.815   7.822
17077SOL    HW155025   5.348   7.739   7.886
17077SOL    HW255026   5.298   7.892   7.862
17078SOL     OW55027   4.747   8.214   8.414
17078SOL    HW155028   4.762   8.235   8.510
17078SOL    HW255029   4.717   8.119   8.405
17079SOL     OW55030   4.704   9.021   9.148
17079SOL    HW155031   4.684   9.065   9.060
17079SOL    HW255032   4.743   8.930   9.132
17080SOL     OW55033   5.583   8.966   9.053
17080SOL    HW155034   5.597   8.993   8.958
17080SOL    HW255035   5.666   8.988   9.106
17081SOL     OW55036   5.264   7.722   7.573
17081SOL    HW155037   5.203   7.647   7.596
17081SOL    HW255038   5.286   7.774   7.656
17082SOL     OW55039   5.027   8.286   7.490
17082SOL    HW155040   5.061   8.193   7.505
17082SOL    HW255041   5.045   8.313   7.395
17083SOL     OW55042   4.792   8.781   8.297
17083SOL    HW155043   4.799   8.697   8.242
17083SOL    HW255044   4.854   8.850   8.261
17084SOL     OW55045   4.063   7.957   8.454
17084SOL    HW155046   4.011   7.874   8.437
17084SOL    HW255047   4.140   7.962   8.390
17085SOL     OW55048   4.862   7.828   9.126
17085SOL    HW155049   4.817   7.891   9.190
17085SOL    HW255050   4.955   7.859   9.109
17086SOL     OW55051   4.884   7.655   8.925
17086SOL    HW155052   4.884   7.719   9.002
17086SOL    HW255053   4.912   7.703   8.842
17087SOL     OW55054   3.732   8.774   7.648
17087SOL    HW155055   3.639   8.795   7.617
17087SOL    HW255056   3.742   8.675   7.661
17088SOL     OW55057   3.812   9.249   8.375
17088SOL    HW155058   3.770   9.163   8.348
17088SOL    HW255059   3.906   9.252   8.341
17089SOL     OW55060   4.228   9.016   8.358
17089SOL    HW155061   4.294   9.090   8.367
17089SOL    HW255062   4.272   8.937   8.316
17090SOL     OW55063   4.726   8.244   8.686
17090SOL    HW155064   4.767   8.212   8.772
17090SOL    HW255065   4.630   8.217   8.683
17091SOL     OW55066   3.764   7.992   8.562
17091SOL    HW155067   3.849   7.959   8.521
17091SOL    HW255068   3.777   8.007   8.660
17092SOL     OW55069   3.913   7.968   9.170
17092SOL    HW155070   3.972   7.928   9.100
17092SOL    HW255071   3.855   8.039   9.129
17093SOL     OW55072   5.093   8.398   9.108
17093SOL    HW155073   5.132   8.487   9.128
17093SOL    HW255074   5.103   8.378   9.011
17094SOL     OW55075   4.539   8.020   7.773
17094SOL    HW155076   4.546   7.931   7.727
17094SOL    HW255077   4.445   8.054   7.765
17095SOL     OW55078   5.381   8.052   8.654
17095SOL    HW155079   5.343   7.983   8.716
17095SOL    HW255080   5.463   8.016   8.610
17096SOL     OW55081   3.976   9.012   9.192
17096SOL    HW155082   3.946   9.069   9.268
17096SOL    HW255083   3.969   8.915   9.218
17097SOL     OW55084   4.395   7.912   8.717
17097SOL    HW155085   4.361   7.823   8.687
17097SOL    HW255086   4.421   7.966   8.637
17098SOL     OW55087   4.654   9.126   8.913
17098SOL    HW155088   4.630   9.108   8.818
17098SOL    HW255089   4.684   9.220   8.923
17099SOL     OW55090   4.197   7.948   7.639
17099SOL    HW155091   4.258   8.028   7.643
17099SOL    HW255092   4.102   7.979   7.646
17100SOL     OW55093   3.883   8.585   8.914
17100SOL    HW155094   3.905   8.524   8.990
17100SOL    HW255095   3.893   8.536   8.828
17101SOL     OW55096   5.071   8.507   8.682
17101SOL    HW155097   5.095   8.444   8.608
17101SOL    HW255098   4.981   8.547   8.664
17102SOL     OW55099   5.026   8.303   7.757
17102SOL    HW155100   4.940   8.272   7.799
17102SOL    HW255101   5.022   8.289   7.658
17103SOL     OW55102   5.483   9.195   8.602
17103SOL    HW155103   5.544   9.225   8.529
17103SOL    HW255104   5.445   9.106   8.580
17104SOL     OW55105   4.976   9.179   8.576
17104SOL    HW155106   5.060   9.184   8.522
17104SOL    HW255107   4.953   9.083   8.594
17105SOL     OW55108   3.807   8.706   8.470
17105SOL    HW155109   3.802   8.705   8.570
17105SOL    HW255110   3.724   8.665   8.432
17106SOL     OW55111   4.412   9.110   9.164
17106SOL    HW155112   4.356   9.191   9.173
17106SOL    HW255113   4.464   9.114   9.078
17107SOL     OW55114   5.450   7.583   7.971
17107SOL    HW155115   5.523   7.566   7.904
17107SOL    HW255116   5.419   7.496   8.009
17108SOL     OW55117   5.112   9.021   7.925
17108SOL    HW155118   5.179   9.033   7.851
17108SOL    HW255119   5.072   9.110   7.948
17109SOL     OW55120   3.854   9.242   9.299
17109SOL    HW155121   3.813   9.168   9.352
17109SOL    HW255122   3.918   9.293   9.357
17110SOL     OW55123   5.004   8.375   8.120
17110SOL    HW155124   5.064   8.294   8.122
17110SOL    HW255125   5.044   8.444   8.060
17111SOL     OW55126   4.554   8.721   8.870
17111SOL    HW155127   4.549   8.754   8.965
17111SOL    HW255128   4.468   8.740   8.824
17112SOL     OW55129   4.396   9.064   7.602
17112SOL    HW155130   4.405   9.074   7.503
17112SOL    HW255131   4.356   8.975   7.623
17113SOL     OW55132   5.374   9.168   8.842
17113SOL    HW155133   5.427   9.178   8.758
17113SOL    HW255134   5.347   9.258   8.876
17114SOL     OW55135   5.565   7.623   8.411
17114SOL    HW155136   5.604   7.538   8.375
17114SOL    HW255137   5.467   7.625   8.392
17115SOL     OW55138   3.987   7.774   8.168
17115SOL    HW155139   3.908   7.825   8.134
17115SOL    HW255140   3.978   7.759   8.266
17116SOL     OW55141   4.918   9.060   7.479
17116SOL    HW155142   4.924   8.967   7.516
17116SOL    HW255143   4.859   9.060   7.399
17117SOL     OW55144   4.546   8.450   8.820
17117SOL    HW155145   4.586   8.449   8.728
17117SOL    HW255146   4.556   8.542   8.860
17118SOL     OW55147   4.640   8.358   7.739
17118SOL    HW155148   4.703   8.396   7.671
17118SOL    HW255149   4.680   8.275   7.778
17119SOL     OW55150   5.228   9.055   7.492
17119SOL    HW155151   5.136   9.092   7.499
17119SOL    HW255152   5.266   9.075   7.402
17120SOL     OW55153   4.096   8.736   8.938
17120SOL    HW155154   4.083   8.829   8.904
17120SOL    HW255155   4.012   8.684   8.925
17121SOL     OW55156   5.338   8.740   8.737
17121SOL    HW155157   5.398   8.743   8.817
17121SOL    HW255158   5.263   8.804   8.750
17122SOL     OW55159   4.763   8.546   8.144
17122SOL    HW155160   4.693   8.499   8.198
17122SOL    HW255161   4.822   8.478   8.101
17123SOL     OW55162   4.738   7.684   8.419
17123SOL    HW155163   4.730   7.648   8.326
17123SOL    HW255164   4.736   7.608   8.484
17124SOL     OW55165   4.314   8.935   7.939
17124SOL    HW155166   4.356   8.877   7.869
17124SOL    HW255167   4.270   9.014   7.895
17125SOL     OW55168   5.433   7.833   8.829
17125SOL    HW155169   5.506   7.902   8.833
17125SOL    HW255170   5.461   7.758   8.770
17126SOL     OW55171   3.979   8.796   7.738
17126SOL    HW155172   3.883   8.797   7.711
17126SOL    HW255173   3.991   8.849   7.822
17127SOL     OW55174   4.396   7.651   8.937
17127SOL    HW155175   4.486   7.635   8.897
17127SOL    HW255176   4.404   7.656   9.036
17128SOL     OW55177   3.799   7.793   7.481
17128SOL    HW155178   3.707   7.765   7.452
17128SOL    HW255179   3.830   7.870   7.425
17129SOL     OW55180   5.164   8.304   8.846
17129SOL    HW155181   5.107   8.356   8.783
17129SOL    HW255182   5.260   8.316   8.822
17130SOL     OW55183   3.796   7.614   7.766
17130SOL    HW155184   3.779   7.697   7.712
17130SOL    HW255185   3.886   7.577   7.744
17131SOL     OW55186   4.907   8.783   7.567
17131SOL    HW155187   4.808   8.772   7.569
17131SOL    HW255188   4.941   8.798   7.660
17132SOL     OW55189   4.337   8.290   8.879
17132SOL    HW155190   4.393   8.371   8.862
17132SOL    HW255191   4.396   8.210   8.882
17133SOL     OW55192   5.217   9.215   8.407
17133SOL    HW155193   5.250   9.279   8.338
17133SOL    HW255194   5.283   9.209   8.482
17134SOL     OW55195   5.174   8.668   9.081
17134SOL    HW155196   5.165   8.658   9.180
17134SOL    HW255197   5.270   8.661   9.055
17135SOL     OW55198   5.398   8.331   8.702
17135SOL    HW155199   5.371   8.242   8.665
17135SOL    HW255200   5.399   8.399   8.629
17136SOL     OW55201   4.949   7.773   7.897
17136SOL    HW155202   5.014   7.699   7.886
17136SOL    HW255203   4.969   7.823   7.981
17137SOL     OW55204   4.318   8.193   8.100
17137SOL    HW155205   4.368   8.278   8.081
17137SOL    HW255206   4.230   8.195   8.052
17138SOL     OW55207   5.454   8.382   8.965
17138SOL    HW155208   5.492   8.473   8.980
17138SOL    HW255209   5.446   8.365   8.866
17139SOL     OW55210   4.583   8.822   7.464
17139SOL    HW155211   4.537   8.837   7.552
17139SOL    HW255212   4.627   8.907   7.434
17140SOL     OW55213   4.385   9.238   8.401
17140SOL    HW155214   4.339   9.326   8.388
17140SOL    HW255215   4.484   9.250   8.394
17141SOL     OW55216   4.583   8.404   8.309
17141SOL    HW155217   4.637   8.335   8.357
17141SOL    HW255218   4.551   8.473   8.375
17142SOL     OW55219   4.807   8.432   7.535
17142SOL    HW155220   4.784   8.485   7.453
17142SOL    HW255221   4.888   8.376   7.516
17143SOL     OW55222   5.585   9.017   8.299
17143SOL    HW155223   5.514   9.005   8.229
17143SOL    HW255224   5.586   8.938   8.359
17144SOL     OW55225   3.803   8.688   8.101
17144SOL    HW155226   3.802   8.641   8.189
17144SOL    HW255227   3.885   8.660   8.050
17145SOL     OW55228   4.396   8.839   9.072
17145SOL    HW155229   4.318   8.789   9.110
17145SOL    HW255230   4.393   8.934   9.103
17146SOL     OW55231   5.548   7.640   8.675
17146SOL    HW155232   5.544   7.550   8.719
17146SOL    HW255233   5.551   7.629   8.576
17147SOL     OW55234   4.152   7.872   7.968
17147SOL    HW155235   4.182   7.800   7.906
17147SOL    HW255236   4.113   7.832   8.051
17148SOL     OW55237   5.429   8.935   8.552
17148SOL    HW155238   5.336   8.910   8.525
17148SOL    HW255239   5.455   8.885   8.634
17149SOL     OW55240   4.041   7.995   8.728
17149SOL    HW155241   4.079   7.936   8.800
17149SOL    HW255242   4.081   7.969   8.640
17150SOL     OW55243   4.536   9.034   8.135
17150SOL    HW155244   4.568   9.044   8.041
17150SOL    HW255245   4.457   8.972   8.137
17151SOL     OW55246   5.148   7.662   8.560
17151SOL    HW155247   5.200   7.597   8.615
17151SOL    HW255248   5.099   7.725   8.621
17152SOL     OW55249   4.725   7.482   8.602
17152SOL    HW155250   4.662   7.410   8.571
17152SOL    HW255251   4.818   7.446   8.602
17153SOL     OW55252   4.494   8.778   7.749
17153SOL    HW155253   4.448   8.691   7.766
17153SOL    HW255254   4.585   8.775   7.790
17154SOL     OW55255   4.342   9.015   8.732
17154SOL    HW155256   4.337   9.097   8.789
17154SOL    HW255257   4.431   9.012   8.687
17155SOL     OW55258   5.076   7.500   7.616
17155SOL    HW155259   5.111   7.459   7.532
17155SOL    HW255260   4.986   7.462   7.636
17156SOL     OW55261   5.024   7.901   8.139
17156SOL    HW155262   4.965   7.981   8.143
17156SOL    HW255263   5.039   7.866   8.232
17157SOL     OW55264   5.317   7.669   8.330
17157SOL    HW155265   5.233   7.668   8.384
17157SOL    HW255266   5.319   7.752   8.274
17158SOL     OW55267   3.763   8.525   7.748
17158SOL    HW155268   3.862   8.514   7.739
17158SOL    HW255269   3.723   8.439   7.780
17159SOL     OW55270   4.599   9.094   7.785
17159SOL    HW155271   4.522   9.059   7.731
17159SOL    HW255272   4.567   9.165   7.847
17160SOL     OW55273   3.954   8.076   9.423
17160SOL    HW155274   3.861   8.074   9.460
17160SOL    HW255275   3.955   8.037   9.331
17161SOL     OW55276   3.955   9.161   9.793
17161SOL    HW155277   3.989   9.238   9.847
17161SOL    HW255278   3.999   9.161   9.703
17162SOL     OW55279   3.954   8.882   9.848
17162SOL    HW155280   3.928   8.978   9.848
17162SOL    HW255281   3.883   8.828   9.893
17163SOL     OW55282   3.846   8.091   9.873
17163SOL    HW155283   3.801   8.003   9.890
17163SOL    HW255284   3.845   8.145   9.957
17164SOL     OW55285   5.566   9.215   9.669
17164SOL    HW155286   5.620   9.186   9.749
17164SOL    HW255287   5.596   9.305   9.640
17165SOL     OW55288   3.751   9.044   9.427
17165SOL    HW155289   3.732   8.948   9.448
17165SOL    HW255290   3.718   9.102   9.502
17166SOL     OW55291   5.413   8.370   9.922
17166SOL    HW155292   5.508   8.341   9.930
17166SOL    HW255293   5.405   8.435   9.847
17167SOL     OW55294   5.365   8.556   9.742
17167SOL    HW155295   5.451   8.558   9.690
17167SOL    HW255296   5.379   8.603   9.830
17168SOL     OW55297   4.337   8.813  10.036
17168SOL    HW155298   4.288   8.726  10.045
17168SOL    HW255299   4.314   8.856   9.949
17169SOL     OW55300   4.533   7.452   9.812
17169SOL    HW155301   4.573   7.543   9.803
17169SOL    HW255302   4.433   7.460   9.818
17170SOL     OW55303   5.249   8.447   9.500
17170SOL    HW155304   5.186   8.371   9.513
17170SOL    HW255305   5.297   8.465   9.586
17171SOL     OW55306   4.322   8.177   9.580
17171SOL    HW155307   4.346   8.246   9.512
17171SOL    HW255308   4.244   8.210   9.634
17172SOL     OW55309   5.300   9.110   9.617
17172SOL    HW155310   5.389   9.156   9.620
17172SOL    HW255311   5.279   9.086   9.522
17173SOL     OW55312   3.800   8.259  10.099
17173SOL    HW155313   3.899   8.247  10.108
17173SOL    HW255314   3.776   8.354  10.120
17174SOL     OW55315   4.589   7.796   9.505
17174SOL    HW155316   4.648   7.859   9.456
17174SOL    HW255317   4.608   7.702   9.476
17175SOL     OW55318   5.086   8.592   9.855
17175SOL    HW155319   5.169   8.563   9.807
17175SOL    HW255320   5.037   8.659   9.799
17176SOL     OW55321   4.075   9.249  10.163
17176SOL    HW155322   4.125   9.163  10.169
17176SOL    HW255323   4.140   9.326  10.160
17177SOL     OW55324   4.835   9.224   9.547
17177SOL    HW155325   4.775   9.162   9.597
17177SOL    HW255326   4.866   9.180   9.462
17178SOL     OW55327   5.356   8.825   9.391
17178SOL    HW155328   5.324   8.919   9.381
17178SOL    HW255329   5.280   8.762   9.379
17179SOL     OW55330   4.188   9.191   9.633
17179SOL    HW155331   4.221   9.230   9.719
17179SOL    HW255332   4.264   9.184   9.568
17180SOL     OW55333   5.124   7.555   9.736
17180SOL    HW155334   5.100   7.518   9.646
17180SOL    HW255335   5.223   7.571   9.740
17181SOL     OW55336   4.106   8.148   9.790
17181SOL    HW155337   4.151   8.058   9.787
17181SOL    HW255338   4.012   8.137   9.823
17182SOL     OW55339   4.338   7.570   9.427
17182SOL    HW155340   4.436   7.548   9.434
17182SOL    HW255341   4.307   7.553   9.334
17183SOL     OW55342   5.158   8.636   9.351
17183SOL    HW155343   5.190   8.560   9.408
17183SOL    HW255344   5.066   8.663   9.381
17184SOL     OW55345   4.021   7.483   9.481
17184SOL    HW155346   4.070   7.567   9.460
17184SOL    HW255347   4.083   7.418   9.526
17185SOL     OW55348   4.659   7.684   9.790
17185SOL    HW155349   4.611   7.725   9.712
17185SOL    HW255350   4.758   7.682   9.771
17186SOL     OW55351   4.183   8.600  10.051
17186SOL    HW155352   4.112   8.573  10.116
17186SOL    HW255353   4.157   8.572   9.958
17187SOL     OW55354   4.995   9.245   9.901
17187SOL    HW155355   5.039   9.309   9.837
17187SOL    HW255356   4.945   9.297   9.971
17188SOL     OW55357   4.756   7.997   9.326
17188SOL    HW155358   4.715   8.079   9.287
17188SOL    HW255359   4.820   8.023   9.399
17189SOL     OW55360   4.590   7.902   9.952
17189SOL    HW155361   4.558   7.974   9.890
17189SOL    HW255362   4.614   7.821   9.899
17190SOL     OW55363   5.581   8.281   9.687
17190SOL    HW155364   5.623   8.217   9.751
17190SOL    HW255365   5.543   8.230   9.609
17191SOL     OW55366   4.212   8.833   9.484
17191SOL    HW155367   4.125   8.818   9.531
17191SOL    HW255368   4.195   8.859   9.389
17192SOL     OW55369   4.429   8.498   9.678
17192SOL    HW155370   4.415   8.505   9.777
17192SOL    HW255371   4.513   8.447   9.660
17193SOL     OW55372   4.091   8.548   9.811
17193SOL    HW155373   4.084   8.631   9.755
17193SOL    HW255374   4.095   8.468   9.751
17194SOL     OW55375   5.306   8.087   9.782
17194SOL    HW155376   5.275   8.148   9.855
17194SOL    HW255377   5.356   8.139   9.713
17195SOL     OW55378   5.264   7.722   9.435
17195SOL    HW155379   5.203   7.647   9.458
17195SOL    HW255380   5.286   7.774   9.518
17196SOL     OW55381   3.732   8.774   9.510
17196SOL    HW155382   3.639   8.795   9.479
17196SOL    HW255383   3.742   8.675   9.523
17197SOL     OW55384   4.539   8.020   9.635
17197SOL    HW155385   4.546   7.931   9.589
17197SOL    HW255386   4.445   8.054   9.627
17198SOL     OW55387   4.197   7.948   9.501
17198SOL    HW155388   4.258   8.028   9.505
17198SOL    HW255389   4.102   7.979   9.508
17199SOL     OW55390   5.450   7.583   9.833
17199SOL    HW155391   5.523   7.566   9.766
17199SOL    HW255392   5.419   7.496   9.871
17200SOL     OW55393   5.112   9.021   9.787
17200SOL    HW155394   5.179   9.033   9.713
17200SOL    HW255395   5.072   9.110   9.810
17201SOL     OW55396   4.396   9.064   9.464
17201SOL    HW155397   4.405   9.074   9.365
17201SOL    HW255398   4.356   8.975   9.485
17202SOL     OW55399   4.918   9.060   9.341
17202SOL    HW155400   4.924   8.967   9.378
17202SOL    HW255401   4.859   9.060   9.261
17203SOL     OW55402   5.228   9.055   9.354
17203SOL    HW155403   5.136   9.092   9.361
17203SOL    HW255404   5.266   9.075   9.264
17204SOL     OW55405   3.979   8.796   9.600
17204SOL    HW155406   3.883   8.797   9.573
17204SOL    HW255407   3.991   8.849   9.684
17205SOL     OW55408   3.799   7.793   9.343
17205SOL    HW155409   3.707   7.765   9.314
17205SOL    HW255410   3.830   7.870   9.287
17206SOL     OW55411   3.796   7.614   9.628
17206SOL    HW155412   3.779   7.697   9.574
17206SOL    HW255413   3.886   7.577   9.606
17207SOL     OW55414   4.907   8.783   9.429
17207SOL    HW155415   4.808   8.772   9.431
17207SOL    HW255416   4.941   8.798   9.522
17208SOL     OW55417   4.949   7.773   9.759
17208SOL    HW155418   5.014   7.699   9.748
17208SOL    HW255419   4.969   7.823   9.843
17209SOL     OW55420   4.318   8.193   9.962
17209SOL    HW155421   4.368   8.278   9.943
17209SOL    HW255422   4.230   8.195   9.914
17210SOL     OW55423   4.583   8.822   9.326
17210SOL    HW155424   4.537   8.837   9.414
17210SOL    HW255425   4.627   8.907   9.296
17211SOL     OW55426   3.803   8.688   9.963
17211SOL    HW155427   3.802   8.641  10.051
17211SOL    HW255428   3.885   8.660   9.912
17212SOL     OW55429   5.076   7.500   9.478
17212SOL    HW155430   5.111   7.459   9.394
17212SOL    HW255431   4.986   7.462   9.498
17213SOL     OW55432   3.949   9.585   0.996
17213SOL    HW155433   3.984   9.568   1.088
17213SOL    HW255434   3.861   9.540   0.984
17214SOL     OW55435   3.743   9.678   0.647
17214SOL    HW155436   3.661   9.721   0.686
17214SOL    HW255437   3.715   9.605   0.584
17215SOL     OW55438   5.479   9.917   0.231
17215SOL    HW155439   5.467   9.904   0.132
17215SOL    HW255440   5.449   9.836   0.280
17216SOL     OW55441   4.162   9.702   1.499
17216SOL    HW155442   4.244   9.646   1.508
17216SOL    HW255443   4.081   9.644   1.503
17217SOL     OW55444   5.318   9.424   1.480
17217SOL    HW155445   5.300   9.491   1.408
17217SOL    HW255446   5.315   9.470   1.569
17218SOL     OW55447   3.846   9.953   0.563
17218SOL    HW155448   3.801   9.865   0.580
17218SOL    HW255449   3.845  10.007   0.647
17219SOL     OW55450   4.533   9.314   0.502
17219SOL    HW155451   4.573   9.405   0.493
17219SOL    HW255452   4.433   9.322   0.508
17220SOL     OW55453   4.041   9.561   1.801
17220SOL    HW155454   4.112   9.632   1.807
17220SOL    HW255455   3.953   9.600   1.829
17221SOL     OW55456   5.005   9.655   0.944
17221SOL    HW155457   4.919   9.605   0.931
17221SOL    HW255458   5.067   9.601   1.000
17222SOL     OW55459   4.531   9.915   1.465
17222SOL    HW155460   4.484   9.912   1.554
17222SOL    HW255461   4.480   9.860   1.399
17223SOL     OW55462   5.118   9.779   1.674
17223SOL    HW155463   5.098   9.822   1.762
17223SOL    HW255464   5.196   9.717   1.683
17224SOL     OW55465   4.715   9.720   1.242
17224SOL    HW155466   4.638   9.754   1.296
17224SOL    HW255467   4.681   9.669   1.163
17225SOL     OW55468   4.765  10.011   0.429
17225SOL    HW155469   4.791  10.007   0.525
17225SOL    HW255470   4.680   9.960   0.415
17226SOL     OW55471   4.589   9.658   0.195
17226SOL    HW155472   4.648   9.721   0.146
17226SOL    HW255473   4.608   9.564   0.166
17227SOL     OW55474   5.443   9.895   1.831
17227SOL    HW155475   5.417   9.984   1.795
17227SOL    HW255476   5.441   9.827   1.758
17228SOL     OW55477   4.274   9.506   0.885
17228SOL    HW155478   4.269   9.501   0.985
17228SOL    HW255479   4.276   9.602   0.856
17229SOL     OW55480   3.926   9.595   1.498
17229SOL    HW155481   3.846   9.655   1.485
17229SOL    HW255482   3.916   9.546   1.584
17230SOL     OW55483   5.124   9.417   0.426
17230SOL    HW155484   5.100   9.380   0.336
17230SOL    HW255485   5.223   9.433   0.430
17231SOL     OW55486   5.271   9.532   1.729
17231SOL    HW155487   5.266   9.569   1.821
17231SOL    HW255488   5.199   9.463   1.717
17232SOL     OW55489   4.338   9.432   0.117
17232SOL    HW155490   4.436   9.410   0.124
17232SOL    HW255491   4.307   9.415   0.024
17233SOL     OW55492   4.505   9.574   1.749
17233SOL    HW155493   4.572   9.513   1.792
17233SOL    HW255494   4.432   9.593   1.814
17234SOL     OW55495   5.075   9.900   1.433
17234SOL    HW155496   5.103   9.857   1.518
17234SOL    HW255497   5.100   9.996   1.434
17235SOL     OW55498   4.646   9.813   0.899
17235SOL    HW155499   4.621   9.804   0.803
17235SOL    HW255500   4.694   9.731   0.930
17236SOL     OW55501   4.263   9.374   0.512
17236SOL    HW155502   4.182   9.375   0.570
17236SOL    HW255503   4.266   9.457   0.457
17237SOL     OW55504   4.659   9.546   0.480
17237SOL    HW155505   4.611   9.587   0.402
17237SOL    HW255506   4.758   9.544   0.461
17238SOL     OW55507   4.800   9.993   1.464
17238SOL    HW155508   4.720   9.932   1.467
17238SOL    HW255509   4.881   9.940   1.440
17239SOL     OW55510   4.756   9.859   0.016
17239SOL    HW155511   4.715   9.941  -0.023
17239SOL    HW255512   4.820   9.885   0.089
17240SOL     OW55513   4.285   9.532   1.147
17240SOL    HW155514   4.323   9.448   1.184
17240SOL    HW255515   4.197   9.551   1.191
17241SOL     OW55516   4.590   9.764   0.642
17241SOL    HW155517   4.558   9.836   0.580
17241SOL    HW255518   4.614   9.683   0.589
17242SOL     OW55519   4.741   9.349   0.753
17242SOL    HW155520   4.669   9.354   0.684
17242SOL    HW255521   4.717   9.280   0.822
17243SOL     OW55522   4.251   9.566   0.328
17243SOL    HW155523   4.278   9.507   0.253
17243SOL    HW255524   4.251   9.661   0.297
17244SOL     OW55525   4.639   9.399   1.402
17244SOL    HW155526   4.664   9.379   1.307
17244SOL    HW255527   4.711   9.455   1.444
17245SOL     OW55528   4.998   9.696   1.262
17245SOL    HW155529   5.019   9.770   1.326
17245SOL    HW255530   4.909   9.713   1.219
17246SOL     OW55531   4.290   9.847   0.865
17246SOL    HW155532   4.302   9.913   0.791
17246SOL    HW255533   4.336   9.881   0.948
17247SOL     OW55534   4.737   9.415   1.770
17247SOL    HW155535   4.743   9.500   1.718
17247SOL    HW255536   4.769   9.339   1.713
17248SOL     OW55537   4.228   9.360   1.740
17248SOL    HW155538   4.186   9.303   1.670
17248SOL    HW255539   4.162   9.429   1.772
17249SOL     OW55540   4.933   9.835   0.275
17249SOL    HW155541   4.946   9.751   0.329
17249SOL    HW255542   4.904   9.909   0.335
17250SOL     OW55543   4.031   9.523   1.231
17250SOL    HW155544   4.008   9.560   1.321
17250SOL    HW255545   4.001   9.428   1.225
17251SOL     OW55546   4.456   9.944   1.064
17251SOL    HW155547   4.515   9.918   0.988
17251SOL    HW255548   4.428  10.040   1.053
17252SOL     OW55549   4.031   9.373   0.618
17252SOL    HW155550   4.020   9.467   0.651
17252SOL    HW255551   4.026   9.310   0.695
17253SOL     OW55552   5.346   9.677   0.374
17253SOL    HW155553   5.348   9.601   0.438
17253SOL    HW255554   5.298   9.754   0.414
17254SOL     OW55555   5.264   9.584   0.125
17254SOL    HW155556   5.203   9.509   0.148
17254SOL    HW255557   5.286   9.636   0.208
17255SOL     OW55558   4.043  10.120   0.949
17255SOL    HW155559   4.136  10.156   0.954
17255SOL    HW255560   4.037  10.035   1.001
17256SOL     OW55561   4.063   9.819   1.006
17256SOL    HW155562   4.011   9.736   0.989
17256SOL    HW255563   4.140   9.824   0.942
17257SOL     OW55564   4.862   9.690   1.678
17257SOL    HW155565   4.817   9.753   1.742
17257SOL    HW255566   4.955   9.721   1.661
17258SOL     OW55567   4.884   9.517   1.477
17258SOL    HW155568   4.884   9.581   1.554
17258SOL    HW255569   4.912   9.565   1.394
17259SOL     OW55570   3.913   9.830   1.722
17259SOL    HW155571   3.972   9.790   1.652
17259SOL    HW255572   3.855   9.901   1.681
17260SOL     OW55573   4.539   9.882   0.325
17260SOL    HW155574   4.546   9.793   0.279
17260SOL    HW255575   4.445   9.916   0.317
17261SOL     OW55576   5.381   9.914   1.206
17261SOL    HW155577   5.343   9.845   1.268
17261SOL    HW255578   5.463   9.878   1.162
17262SOL     OW55579   4.395   9.774   1.269
17262SOL    HW155580   4.361   9.685   1.239
17262SOL    HW255581   4.421   9.828   1.189
17263SOL     OW55582   4.627   9.396   0.133
17263SOL    HW155583   4.678   9.397   0.047
17263SOL    HW255584   4.683   9.354   0.204
17264SOL     OW55585   5.450   9.445   0.523
17264SOL    HW155586   5.523   9.428   0.456
17264SOL    HW255587   5.419   9.358   0.561
17265SOL     OW55588   5.565   9.485   0.963
17265SOL    HW155589   5.604   9.400   0.927
17265SOL    HW255590   5.467   9.487   0.944
17266SOL     OW55591   3.987   9.636   0.720
17266SOL    HW155592   3.908   9.687   0.686
17266SOL    HW255593   3.978   9.621   0.818
17267SOL     OW55594   4.738   9.546   0.971
17267SOL    HW155595   4.730   9.510   0.878
17267SOL    HW255596   4.736   9.470   1.036
17268SOL     OW55597   5.433   9.695   1.381
17268SOL    HW155598   5.506   9.764   1.385
17268SOL    HW255599   5.461   9.620   1.322
17269SOL     OW55600   4.396   9.513   1.489
17269SOL    HW155601   4.486   9.497   1.449
17269SOL    HW255602   4.404   9.518   1.588
17270SOL     OW55603   3.799   9.655   0.033
17270SOL    HW155604   3.707   9.627   0.004
17270SOL    HW255605   3.830   9.732  -0.023
17271SOL     OW55606   3.796   9.476   0.318
17271SOL    HW155607   3.779   9.559   0.264
17271SOL    HW255608   3.886   9.439   0.296
17272SOL     OW55609   4.440   9.875   1.708
17272SOL    HW155610   4.459   9.940   1.782
17272SOL    HW255611   4.500   9.795   1.717
17273SOL     OW55612   4.949   9.635   0.449
17273SOL    HW155613   5.014   9.561   0.438
17273SOL    HW255614   4.969   9.685   0.533
17274SOL     OW55615   5.501   9.652   1.642
17274SOL    HW155616   5.484   9.683   1.548
17274SOL    HW255617   5.417   9.615   1.680
17275SOL     OW55618   4.807  10.294   0.087
17275SOL    HW155619   4.784  10.347   0.005
17275SOL    HW255620   4.888  10.238   0.068
17276SOL     OW55621   5.548   9.502   1.227
17276SOL    HW155622   5.544   9.412   1.271
17276SOL    HW255623   5.551   9.491   1.128
17277SOL     OW55624   4.152   9.734   0.520
17277SOL    HW155625   4.182   9.662   0.458
17277SOL    HW255626   4.113   9.694   0.603
17278SOL     OW55627   4.041   9.857   1.280
17278SOL    HW155628   4.079   9.798   1.352
17278SOL    HW255629   4.081   9.831   1.192
17279SOL     OW55630   5.148   9.524   1.112
17279SOL    HW155631   5.200   9.459   1.167
17279SOL    HW255632   5.099   9.587   1.173
17280SOL     OW55633   4.725   9.344   1.154
17280SOL    HW155634   4.662   9.272   1.123
17280SOL    HW255635   4.818   9.308   1.154
17281SOL     OW55636   5.076   9.362   0.168
17281SOL    HW155637   5.111   9.321   0.084
17281SOL    HW255638   4.986   9.324   0.188
17282SOL     OW55639   5.024   9.763   0.691
17282SOL    HW155640   4.965   9.843   0.695
17282SOL    HW255641   5.039   9.728   0.784
17283SOL     OW55642   5.317   9.531   0.882
17283SOL    HW155643   5.233   9.530   0.936
17283SOL    HW255644   5.319   9.614   0.826
17284SOL     OW55645   3.949   9.585   2.858
17284SOL    HW155646   3.984   9.568   2.950
17284SOL    HW255647   3.861   9.540   2.846
17285SOL     OW55648   3.743   9.678   2.509
17285SOL    HW155649   3.661   9.721   2.548
17285SOL    HW255650   3.715   9.605   2.446
17286SOL     OW55651   5.479   9.917   2.093
17286SOL    HW155652   5.467   9.904   1.994
17286SOL    HW255653   5.449   9.836   2.142
17287SOL     OW55654   4.162   9.702   3.361
17287SOL    HW155655   4.244   9.646   3.370
17287SOL    HW255656   4.081   9.644   3.365
17288SOL     OW55657   5.327   9.757   2.599
17288SOL    HW155658   5.253   9.803   2.549
17288SOL    HW255659   5.378   9.825   2.652
17289SOL     OW55660   5.318   9.424   3.342
17289SOL    HW155661   5.300   9.491   3.270
17289SOL    HW255662   5.315   9.470   3.431
17290SOL     OW55663   3.846   9.953   2.425
17290SOL    HW155664   3.801   9.865   2.442
17290SOL    HW255665   3.845  10.007   2.509
17291SOL     OW55666   4.533   9.314   2.364
17291SOL    HW155667   4.573   9.405   2.355
17291SOL    HW255668   4.433   9.322   2.370
17292SOL     OW55669   4.041   9.561   3.663
17292SOL    HW155670   4.112   9.632   3.669
17292SOL    HW255671   3.953   9.600   3.691
17293SOL     OW55672   5.005   9.655   2.806
17293SOL    HW155673   4.919   9.605   2.793
17293SOL    HW255674   5.067   9.601   2.862
17294SOL     OW55675   4.531   9.915   3.327
17294SOL    HW155676   4.484   9.912   3.416
17294SOL    HW255677   4.480   9.860   3.261
17295SOL     OW55678   5.118   9.779   3.536
17295SOL    HW155679   5.098   9.822   3.624
17295SOL    HW255680   5.196   9.717   3.545
17296SOL     OW55681   4.715   9.720   3.104
17296SOL    HW155682   4.638   9.754   3.158
17296SOL    HW255683   4.681   9.669   3.025
17297SOL     OW55684   4.765  10.011   2.291
17297SOL    HW155685   4.791  10.007   2.387
17297SOL    HW255686   4.680   9.960   2.277
17298SOL     OW55687   4.589   9.658   2.057
17298SOL    HW155688   4.648   9.721   2.008
17298SOL    HW255689   4.608   9.564   2.028
17299SOL     OW55690   5.443   9.895   3.693
17299SOL    HW155691   5.417   9.984   3.657
17299SOL    HW255692   5.441   9.827   3.620
17300SOL     OW55693   4.274   9.506   2.747
17300SOL    HW155694   4.269   9.501   2.847
17300SOL    HW255695   4.276   9.602   2.718
17301SOL     OW55696   5.182  10.045   2.590
17301SOL    HW155697   5.177   9.980   2.665
17301SOL    HW255698   5.262  10.104   2.603
17302SOL     OW55699   3.926   9.595   3.360
17302SOL    HW155700   3.846   9.655   3.347
17302SOL    HW255701   3.916   9.546   3.446
17303SOL     OW55702   5.124   9.417   2.288
17303SOL    HW155703   5.100   9.380   2.198
17303SOL    HW255704   5.223   9.433   2.292
17304SOL     OW55705   5.271   9.532   3.591
17304SOL    HW155706   5.266   9.569   3.683
17304SOL    HW255707   5.199   9.463   3.579
17305SOL     OW55708   4.338   9.432   1.979
17305SOL    HW155709   4.436   9.410   1.986
17305SOL    HW255710   4.307   9.415   1.886
17306SOL     OW55711   4.505   9.574   3.611
17306SOL    HW155712   4.572   9.513   3.654
17306SOL    HW255713   4.432   9.593   3.676
17307SOL     OW55714   5.075   9.900   3.295
17307SOL    HW155715   5.103   9.857   3.380
17307SOL    HW255716   5.100   9.996   3.296
17308SOL     OW55717   4.646   9.813   2.761
17308SOL    HW155718   4.621   9.804   2.665
17308SOL    HW255719   4.694   9.731   2.792
17309SOL     OW55720   4.263   9.374   2.374
17309SOL    HW155721   4.182   9.375   2.432
17309SOL    HW255722   4.266   9.457   2.319
17310SOL     OW55723   4.021   9.345   2.033
17310SOL    HW155724   4.070   9.429   2.012
17310SOL    HW255725   4.083   9.280   2.078
17311SOL     OW55726   4.659   9.546   2.342
17311SOL    HW155727   4.611   9.587   2.264
17311SOL    HW255728   4.758   9.544   2.323
17312SOL     OW55729   4.800   9.993   3.326
17312SOL    HW155730   4.720   9.932   3.329
17312SOL    HW255731   4.881   9.940   3.302
17313SOL     OW55732   4.756   9.859   1.878
17313SOL    HW155733   4.715   9.941   1.839
17313SOL    HW255734   4.820   9.885   1.951
17314SOL     OW55735   3.802   9.866   3.248
17314SOL    HW155736   3.894   9.865   3.207
17314SOL    HW255737   3.796   9.940   3.315
17315SOL     OW55738   4.285   9.532   3.009
17315SOL    HW155739   4.323   9.448   3.046
17315SOL    HW255740   4.197   9.551   3.053
17316SOL     OW55741   4.590   9.764   2.504
17316SOL    HW155742   4.558   9.836   2.442
17316SOL    HW255743   4.614   9.683   2.451
17317SOL     OW55744   4.741   9.349   2.615
17317SOL    HW155745   4.669   9.354   2.546
17317SOL    HW255746   4.717   9.280   2.684
17318SOL     OW55747   5.190   9.900   2.854
17318SOL    HW155748   5.160   9.805   2.861
17318SOL    HW255749   5.263   9.916   2.920
17319SOL     OW55750   4.251   9.566   2.190
17319SOL    HW155751   4.278   9.507   2.115
17319SOL    HW255752   4.251   9.661   2.159
17320SOL     OW55753   4.639   9.399   3.264
17320SOL    HW155754   4.664   9.379   3.169
17320SOL    HW255755   4.711   9.455   3.306
17321SOL     OW55756   4.998   9.696   3.124
17321SOL    HW155757   5.019   9.770   3.188
17321SOL    HW255758   4.909   9.713   3.081
17322SOL     OW55759   4.290   9.847   2.727
17322SOL    HW155760   4.302   9.913   2.653
17322SOL    HW255761   4.336   9.881   2.810
17323SOL     OW55762   5.306   9.949   2.334
17323SOL    HW155763   5.275  10.010   2.407
17323SOL    HW255764   5.356  10.001   2.265
17324SOL     OW55765   4.737   9.415   3.632
17324SOL    HW155766   4.743   9.500   3.580
17324SOL    HW255767   4.769   9.339   3.575
17325SOL     OW55768   4.228   9.360   3.602
17325SOL    HW155769   4.186   9.303   3.532
17325SOL    HW255770   4.162   9.429   3.634
17326SOL     OW55771   4.933   9.835   2.137
17326SOL    HW155772   4.946   9.751   2.191
17326SOL    HW255773   4.904   9.909   2.197
17327SOL     OW55774   4.031   9.523   3.093
17327SOL    HW155775   4.008   9.560   3.183
17327SOL    HW255776   4.001   9.428   3.087
17328SOL     OW55777   4.456   9.944   2.926
17328SOL    HW155778   4.515   9.918   2.850
17328SOL    HW255779   4.428  10.040   2.915
17329SOL     OW55780   4.031   9.373   2.480
17329SOL    HW155781   4.020   9.467   2.513
17329SOL    HW255782   4.026   9.310   2.557
17330SOL     OW55783   5.346   9.677   2.236
17330SOL    HW155784   5.348   9.601   2.300
17330SOL    HW255785   5.298   9.754   2.276
17331SOL     OW55786   5.264   9.584   1.987
17331SOL    HW155787   5.203   9.509   2.010
17331SOL    HW255788   5.286   9.636   2.070
17332SOL     OW55789   4.043  10.120   2.811
17332SOL    HW155790   4.136  10.156   2.816
17332SOL    HW255791   4.037  10.035   2.863
17333SOL     OW55792   4.063   9.819   2.868
17333SOL    HW155793   4.011   9.736   2.851
17333SOL    HW255794   4.140   9.824   2.804
17334SOL     OW55795   4.862   9.690   3.540
17334SOL    HW155796   4.817   9.753   3.604
17334SOL    HW255797   4.955   9.721   3.523
17335SOL     OW55798   4.884   9.517   3.339
17335SOL    HW155799   4.884   9.581   3.416
17335SOL    HW255800   4.912   9.565   3.256
17336SOL     OW55801   3.764   9.854   2.976
17336SOL    HW155802   3.849   9.821   2.935
17336SOL    HW255803   3.777   9.869   3.074
17337SOL     OW55804   3.913   9.830   3.584
17337SOL    HW155805   3.972   9.790   3.514
17337SOL    HW255806   3.855   9.901   3.543
17338SOL     OW55807   4.539   9.882   2.187
17338SOL    HW155808   4.546   9.793   2.141
17338SOL    HW255809   4.445   9.916   2.179
17339SOL     OW55810   5.381   9.914   3.068
17339SOL    HW155811   5.343   9.845   3.130
17339SOL    HW255812   5.463   9.878   3.024
17340SOL     OW55813   4.395   9.774   3.131
17340SOL    HW155814   4.361   9.685   3.101
17340SOL    HW255815   4.421   9.828   3.051
17341SOL     OW55816   5.450   9.445   2.385
17341SOL    HW155817   5.523   9.428   2.318
17341SOL    HW255818   5.419   9.358   2.423
17342SOL     OW55819   5.565   9.485   2.825
17342SOL    HW155820   5.604   9.400   2.789
17342SOL    HW255821   5.467   9.487   2.806
17343SOL     OW55822   3.987   9.636   2.582
17343SOL    HW155823   3.908   9.687   2.548
17343SOL    HW255824   3.978   9.621   2.680
17344SOL     OW55825   4.738   9.546   2.833
17344SOL    HW155826   4.730   9.510   2.740
17344SOL    HW255827   4.736   9.470   2.898
17345SOL     OW55828   5.433   9.695   3.243
17345SOL    HW155829   5.506   9.764   3.247
17345SOL    HW255830   5.461   9.620   3.184
17346SOL     OW55831   4.396   9.513   3.351
17346SOL    HW155832   4.486   9.497   3.311
17346SOL    HW255833   4.404   9.518   3.450
17347SOL     OW55834   3.799   9.655   1.895
17347SOL    HW155835   3.707   9.627   1.866
17347SOL    HW255836   3.830   9.732   1.839
17348SOL     OW55837   3.796   9.476   2.180
17348SOL    HW155838   3.779   9.559   2.126
17348SOL    HW255839   3.886   9.439   2.158
17349SOL     OW55840   4.440   9.875   3.570
17349SOL    HW155841   4.459   9.940   3.644
17349SOL    HW255842   4.500   9.795   3.579
17350SOL     OW55843   4.949   9.635   2.311
17350SOL    HW155844   5.014   9.561   2.300
17350SOL    HW255845   4.969   9.685   2.395
17351SOL     OW55846   5.501   9.652   3.504
17351SOL    HW155847   5.484   9.683   3.410
17351SOL    HW255848   5.417   9.615   3.542
17352SOL     OW55849   4.807  10.294   1.949
17352SOL    HW155850   4.784  10.347   1.867
17352SOL    HW255851   4.888  10.238   1.930
17353SOL     OW55852   5.548   9.502   3.089
17353SOL    HW155853   5.544   9.412   3.133
17353SOL    HW255854   5.551   9.491   2.990
17354SOL     OW55855   4.152   9.734   2.382
17354SOL    HW155856   4.182   9.662   2.320
17354SOL    HW255857   4.113   9.694   2.465
17355SOL     OW55858   4.041   9.857   3.142
17355SOL    HW155859   4.079   9.798   3.214
17355SOL    HW255860   4.081   9.831   3.054
17356SOL     OW55861   5.148   9.524   2.974
17356SOL    HW155862   5.200   9.459   3.029
17356SOL    HW255863   5.099   9.587   3.035
17357SOL     OW55864   4.725   9.344   3.016
17357SOL    HW155865   4.662   9.272   2.985
17357SOL    HW255866   4.818   9.308   3.016
17358SOL     OW55867   5.076   9.362   2.030
17358SOL    HW155868   5.111   9.321   1.946
17358SOL    HW255869   4.986   9.324   2.050
17359SOL     OW55870   5.024   9.763   2.553
17359SOL    HW155871   4.965   9.843   2.557
17359SOL    HW255872   5.039   9.728   2.646
17360SOL     OW55873   5.317   9.531   2.744
17360SOL    HW155874   5.233   9.530   2.798
17360SOL    HW255875   5.319   9.614   2.688
17361SOL     OW55876   3.949   9.585   4.720
17361SOL    HW155877   3.984   9.568   4.812
17361SOL    HW255878   3.861   9.540   4.708
17362SOL     OW55879   3.743   9.678   4.371
17362SOL    HW155880   3.661   9.721   4.410
17362SOL    HW255881   3.715   9.605   4.308
17363SOL     OW55882   4.162   9.702   5.223
17363SOL    HW155883   4.244   9.646   5.232
17363SOL    HW255884   4.081   9.644   5.227
17364SOL     OW55885   5.318   9.424   5.204
17364SOL    HW155886   5.300   9.491   5.132
17364SOL    HW255887   5.315   9.470   5.293
17365SOL     OW55888   3.846   9.953   4.287
17365SOL    HW155889   3.801   9.865   4.304
17365SOL    HW255890   3.845  10.007   4.371
17366SOL     OW55891   4.533   9.314   4.226
17366SOL    HW155892   4.573   9.405   4.217
17366SOL    HW255893   4.433   9.322   4.232
17367SOL     OW55894   4.041   9.561   5.525
17367SOL    HW155895   4.112   9.632   5.531
17367SOL    HW255896   3.953   9.600   5.553
17368SOL     OW55897   5.005   9.655   4.668
17368SOL    HW155898   4.919   9.605   4.655
17368SOL    HW255899   5.067   9.601   4.724
17369SOL     OW55900   4.531   9.915   5.189
17369SOL    HW155901   4.484   9.912   5.278
17369SOL    HW255902   4.480   9.860   5.123
17370SOL     OW55903   5.118   9.779   5.398
17370SOL    HW155904   5.098   9.822   5.486
17370SOL    HW255905   5.196   9.717   5.407
17371SOL     OW55906   4.715   9.720   4.966
17371SOL    HW155907   4.638   9.754   5.020
17371SOL    HW255908   4.681   9.669   4.887
17372SOL     OW55909   4.765  10.011   4.153
17372SOL    HW155910   4.791  10.007   4.249
17372SOL    HW255911   4.680   9.960   4.139
17373SOL     OW55912   4.589   9.658   3.919
17373SOL    HW155913   4.648   9.721   3.870
17373SOL    HW255914   4.608   9.564   3.890
17374SOL     OW55915   5.443   9.895   5.555
17374SOL    HW155916   5.417   9.984   5.519
17374SOL    HW255917   5.441   9.827   5.482
17375SOL     OW55918   4.274   9.506   4.609
17375SOL    HW155919   4.269   9.501   4.709
17375SOL    HW255920   4.276   9.602   4.580
17376SOL     OW55921   3.926   9.595   5.222
17376SOL    HW155922   3.846   9.655   5.209
17376SOL    HW255923   3.916   9.546   5.308
17377SOL     OW55924   5.124   9.417   4.150
17377SOL    HW155925   5.100   9.380   4.060
17377SOL    HW255926   5.223   9.433   4.154
17378SOL     OW55927   5.271   9.532   5.453
17378SOL    HW155928   5.266   9.569   5.545
17378SOL    HW255929   5.199   9.463   5.441
17379SOL     OW55930   4.338   9.432   3.841
17379SOL    HW155931   4.436   9.410   3.848
17379SOL    HW255932   4.307   9.415   3.748
17380SOL     OW55933   4.505   9.574   5.473
17380SOL    HW155934   4.572   9.513   5.516
17380SOL    HW255935   4.432   9.593   5.538
17381SOL     OW55936   4.646   9.813   4.623
17381SOL    HW155937   4.621   9.804   4.527
17381SOL    HW255938   4.694   9.731   4.654
17382SOL     OW55939   4.263   9.374   4.236
17382SOL    HW155940   4.182   9.375   4.294
17382SOL    HW255941   4.266   9.457   4.181
17383SOL     OW55942   4.021   9.345   3.895
17383SOL    HW155943   4.070   9.429   3.874
17383SOL    HW255944   4.083   9.280   3.940
17384SOL     OW55945   4.659   9.546   4.204
17384SOL    HW155946   4.611   9.587   4.126
17384SOL    HW255947   4.758   9.544   4.185
17385SOL     OW55948   4.800   9.993   5.188
17385SOL    HW155949   4.720   9.932   5.191
17385SOL    HW255950   4.881   9.940   5.164
17386SOL     OW55951   4.756   9.859   3.740
17386SOL    HW155952   4.715   9.941   3.701
17386SOL    HW255953   4.820   9.885   3.813
17387SOL     OW55954   3.802   9.866   5.110
17387SOL    HW155955   3.894   9.865   5.069
17387SOL    HW255956   3.796   9.940   5.177
17388SOL     OW55957   4.285   9.532   4.871
17388SOL    HW155958   4.323   9.448   4.908
17388SOL    HW255959   4.197   9.551   4.915
17389SOL     OW55960   4.590   9.764   4.366
17389SOL    HW155961   4.558   9.836   4.304
17389SOL    HW255962   4.614   9.683   4.313
17390SOL     OW55963   4.741   9.349   4.477
17390SOL    HW155964   4.669   9.354   4.408
17390SOL    HW255965   4.717   9.280   4.546
17391SOL     OW55966   4.251   9.566   4.052
17391SOL    HW155967   4.278   9.507   3.977
17391SOL    HW255968   4.251   9.661   4.021
17392SOL     OW55969   4.639   9.399   5.126
17392SOL    HW155970   4.664   9.379   5.031
17392SOL    HW255971   4.711   9.455   5.168
17393SOL     OW55972   4.998   9.696   4.986
17393SOL    HW155973   5.019   9.770   5.050
17393SOL    HW255974   4.909   9.713   4.943
17394SOL     OW55975   4.737   9.415   5.494
17394SOL    HW155976   4.743   9.500   5.442
17394SOL    HW255977   4.769   9.339   5.437
17395SOL     OW55978   4.228   9.360   5.464
17395SOL    HW155979   4.186   9.303   5.394
17395SOL    HW255980   4.162   9.429   5.496
17396SOL     OW55981   4.933   9.835   3.999
17396SOL    HW155982   4.946   9.751   4.053
17396SOL    HW255983   4.904   9.909   4.059
17397SOL     OW55984   4.031   9.523   4.955
17397SOL    HW155985   4.008   9.560   5.045
17397SOL    HW255986   4.001   9.428   4.949
17398SOL     OW55987   4.031   9.373   4.342
17398SOL    HW155988   4.020   9.467   4.375
17398SOL    HW255989   4.026   9.310   4.419
17399SOL     OW55990   5.346   9.677   4.098
17399SOL    HW155991   5.348   9.601   4.162
17399SOL    HW255992   5.298   9.754   4.138
17400SOL     OW55993   5.264   9.584   3.849
17400SOL    HW155994   5.203   9.509   3.872
17400SOL    HW255995   5.286   9.636   3.932
17401SOL     OW55996   4.043  10.120   4.673
17401SOL    HW155997   4.136  10.156   4.678
17401SOL    HW255998   4.037  10.035   4.725
17402SOL     OW55999   4.063   9.819   4.730
17402SOL    HW156000   4.011   9.736   4.713
17402SOL    HW256001   4.140   9.824   4.666
17403SOL     OW56002   4.862   9.690   5.402
17403SOL    HW156003   4.817   9.753   5.466
17403SOL    HW256004   4.955   9.721   5.385
17404SOL     OW56005   4.884   9.517   5.201
17404SOL    HW156006   4.884   9.581   5.278
17404SOL    HW256007   4.912   9.565   5.118
17405SOL     OW56008   3.764   9.854   4.838
17405SOL    HW156009   3.849   9.821   4.797
17405SOL    HW256010   3.777   9.869   4.936
17406SOL     OW56011   3.913   9.830   5.446
17406SOL    HW156012   3.972   9.790   5.376
17406SOL    HW256013   3.855   9.901   5.405
17407SOL     OW56014   4.539   9.882   4.049
17407SOL    HW156015   4.546   9.793   4.003
17407SOL    HW256016   4.445   9.916   4.041
17408SOL     OW56017   5.450   9.445   4.247
17408SOL    HW156018   5.523   9.428   4.180
17408SOL    HW256019   5.419   9.358   4.285
17409SOL     OW56020   5.565   9.485   4.687
17409SOL    HW156021   5.604   9.400   4.651
17409SOL    HW256022   5.467   9.487   4.668
17410SOL     OW56023   3.987   9.636   4.444
17410SOL    HW156024   3.908   9.687   4.410
17410SOL    HW256025   3.978   9.621   4.542
17411SOL     OW56026   4.738   9.546   4.695
17411SOL    HW156027   4.730   9.510   4.602
17411SOL    HW256028   4.736   9.470   4.760
17412SOL     OW56029   5.433   9.695   5.105
17412SOL    HW156030   5.506   9.764   5.109
17412SOL    HW256031   5.461   9.620   5.046
17413SOL     OW56032   4.396   9.513   5.213
17413SOL    HW156033   4.486   9.497   5.173
17413SOL    HW256034   4.404   9.518   5.312
17414SOL     OW56035   3.799   9.655   3.757
17414SOL    HW156036   3.707   9.627   3.728
17414SOL    HW256037   3.830   9.732   3.701
17415SOL     OW56038   3.796   9.476   4.042
17415SOL    HW156039   3.779   9.559   3.988
17415SOL    HW256040   3.886   9.439   4.020
17416SOL     OW56041   4.949   9.635   4.173
17416SOL    HW156042   5.014   9.561   4.162
17416SOL    HW256043   4.969   9.685   4.257
17417SOL     OW56044   5.501   9.652   5.366
17417SOL    HW156045   5.484   9.683   5.272
17417SOL    HW256046   5.417   9.615   5.404
17418SOL     OW56047   4.807  10.294   3.811
17418SOL    HW156048   4.784  10.347   3.729
17418SOL    HW256049   4.888  10.238   3.792
17419SOL     OW56050   5.548   9.502   4.951
17419SOL    HW156051   5.544   9.412   4.995
17419SOL    HW256052   5.551   9.491   4.852
17420SOL     OW56053   4.152   9.734   4.244
17420SOL    HW156054   4.182   9.662   4.182
17420SOL    HW256055   4.113   9.694   4.327
17421SOL     OW56056   4.041   9.857   5.004
17421SOL    HW156057   4.079   9.798   5.076
17421SOL    HW256058   4.081   9.831   4.916
17422SOL     OW56059   4.725   9.344   4.878
17422SOL    HW156060   4.662   9.272   4.847
17422SOL    HW256061   4.818   9.308   4.878
17423SOL     OW56062   5.076   9.362   3.892
17423SOL    HW156063   5.111   9.321   3.808
17423SOL    HW256064   4.986   9.324   3.912
17424SOL     OW56065   5.024   9.763   4.415
17424SOL    HW156066   4.965   9.843   4.419
17424SOL    HW256067   5.039   9.728   4.508
17425SOL     OW56068   3.949   9.585   6.582
17425SOL    HW156069   3.984   9.568   6.674
17425SOL    HW256070   3.861   9.540   6.570
17426SOL     OW56071   3.743   9.678   6.233
17426SOL    HW156072   3.661   9.721   6.272
17426SOL    HW256073   3.715   9.605   6.170
17427SOL     OW56074   5.479   9.917   5.817
17427SOL    HW156075   5.467   9.904   5.718
17427SOL    HW256076   5.449   9.836   5.866
17428SOL     OW56077   4.162   9.702   7.085
17428SOL    HW156078   4.244   9.646   7.094
17428SOL    HW256079   4.081   9.644   7.089
17429SOL     OW56080   5.327   9.757   6.323
17429SOL    HW156081   5.253   9.803   6.273
17429SOL    HW256082   5.378   9.825   6.376
17430SOL     OW56083   5.318   9.424   7.066
17430SOL    HW156084   5.300   9.491   6.994
17430SOL    HW256085   5.315   9.470   7.155
17431SOL     OW56086   3.846   9.953   6.149
17431SOL    HW156087   3.801   9.865   6.166
17431SOL    HW256088   3.845  10.007   6.233
17432SOL     OW56089   4.533   9.314   6.088
17432SOL    HW156090   4.573   9.405   6.079
17432SOL    HW256091   4.433   9.322   6.094
17433SOL     OW56092   4.041   9.561   7.387
17433SOL    HW156093   4.112   9.632   7.393
17433SOL    HW256094   3.953   9.600   7.415
17434SOL     OW56095   5.005   9.655   6.530
17434SOL    HW156096   4.919   9.605   6.517
17434SOL    HW256097   5.067   9.601   6.586
17435SOL     OW56098   4.531   9.915   7.051
17435SOL    HW156099   4.484   9.912   7.140
17435SOL    HW256100   4.480   9.860   6.985
17436SOL     OW56101   5.118   9.779   7.260
17436SOL    HW156102   5.098   9.822   7.348
17436SOL    HW256103   5.196   9.717   7.269
17437SOL     OW56104   4.715   9.720   6.828
17437SOL    HW156105   4.638   9.754   6.882
17437SOL    HW256106   4.681   9.669   6.749
17438SOL     OW56107   4.589   9.658   5.781
17438SOL    HW156108   4.648   9.721   5.732
17438SOL    HW256109   4.608   9.564   5.752
17439SOL     OW56110   4.274   9.506   6.471
17439SOL    HW156111   4.269   9.501   6.571
17439SOL    HW256112   4.276   9.602   6.442
17440SOL     OW56113   5.182  10.045   6.314
17440SOL    HW156114   5.177   9.980   6.389
17440SOL    HW256115   5.262  10.104   6.327
17441SOL     OW56116   3.926   9.595   7.084
17441SOL    HW156117   3.846   9.655   7.071
17441SOL    HW256118   3.916   9.546   7.170
17442SOL     OW56119   5.271   9.532   7.315
17442SOL    HW156120   5.266   9.569   7.407
17442SOL    HW256121   5.199   9.463   7.303
17443SOL     OW56122   4.338   9.432   5.703
17443SOL    HW156123   4.436   9.410   5.710
17443SOL    HW256124   4.307   9.415   5.610
17444SOL     OW56125   4.505   9.574   7.335
17444SOL    HW156126   4.572   9.513   7.378
17444SOL    HW256127   4.432   9.593   7.400
17445SOL     OW56128   5.075   9.900   7.019
17445SOL    HW156129   5.103   9.857   7.104
17445SOL    HW256130   5.100   9.996   7.020
17446SOL     OW56131   4.646   9.813   6.485
17446SOL    HW156132   4.621   9.804   6.389
17446SOL    HW256133   4.694   9.731   6.516
17447SOL     OW56134   4.263   9.374   6.098
17447SOL    HW156135   4.182   9.375   6.156
17447SOL    HW256136   4.266   9.457   6.043
17448SOL     OW56137   4.021   9.345   5.757
17448SOL    HW156138   4.070   9.429   5.736
17448SOL    HW256139   4.083   9.280   5.802
17449SOL     OW56140   4.800   9.993   7.050
17449SOL    HW156141   4.720   9.932   7.053
17449SOL    HW256142   4.881   9.940   7.026
17450SOL     OW56143   3.802   9.866   6.972
17450SOL    HW156144   3.894   9.865   6.931
17450SOL    HW256145   3.796   9.940   7.039
17451SOL     OW56146   4.285   9.532   6.733
17451SOL    HW156147   4.323   9.448   6.770
17451SOL    HW256148   4.197   9.551   6.777
17452SOL     OW56149   4.590   9.764   6.228
17452SOL    HW156150   4.558   9.836   6.166
17452SOL    HW256151   4.614   9.683   6.175
17453SOL     OW56152   4.741   9.349   6.339
17453SOL    HW156153   4.669   9.354   6.270
17453SOL    HW256154   4.717   9.280   6.408
17454SOL     OW56155   4.251   9.566   5.914
17454SOL    HW156156   4.278   9.507   5.839
17454SOL    HW256157   4.251   9.661   5.883
17455SOL     OW56158   4.639   9.399   6.988
17455SOL    HW156159   4.664   9.379   6.893
17455SOL    HW256160   4.711   9.455   7.030
17456SOL     OW56161   4.998   9.696   6.848
17456SOL    HW156162   5.019   9.770   6.912
17456SOL    HW256163   4.909   9.713   6.805
17457SOL     OW56164   4.290   9.847   6.451
17457SOL    HW156165   4.302   9.913   6.377
17457SOL    HW256166   4.336   9.881   6.534
17458SOL     OW56167   5.306   9.949   6.058
17458SOL    HW156168   5.275  10.010   6.131
17458SOL    HW256169   5.356  10.001   5.989
17459SOL     OW56170   4.737   9.415   7.356
17459SOL    HW156171   4.743   9.500   7.304
17459SOL    HW256172   4.769   9.339   7.299
17460SOL     OW56173   4.228   9.360   7.326
17460SOL    HW156174   4.186   9.303   7.256
17460SOL    HW256175   4.162   9.429   7.358
17461SOL     OW56176   4.031   9.523   6.817
17461SOL    HW156177   4.008   9.560   6.907
17461SOL    HW256178   4.001   9.428   6.811
17462SOL     OW56179   4.456   9.944   6.650
17462SOL    HW156180   4.515   9.918   6.574
17462SOL    HW256181   4.428  10.040   6.639
17463SOL     OW56182   4.031   9.373   6.204
17463SOL    HW156183   4.020   9.467   6.237
17463SOL    HW256184   4.026   9.310   6.281
17464SOL     OW56185   5.346   9.677   5.960
17464SOL    HW156186   5.348   9.601   6.024
17464SOL    HW256187   5.298   9.754   6.000
17465SOL     OW56188   5.264   9.584   5.711
17465SOL    HW156189   5.203   9.509   5.734
17465SOL    HW256190   5.286   9.636   5.794
17466SOL     OW56191   4.043  10.120   6.535
17466SOL    HW156192   4.136  10.156   6.540
17466SOL    HW256193   4.037  10.035   6.587
17467SOL     OW56194   4.063   9.819   6.592
17467SOL    HW156195   4.011   9.736   6.575
17467SOL    HW256196   4.140   9.824   6.528
17468SOL     OW56197   4.862   9.690   7.264
17468SOL    HW156198   4.817   9.753   7.328
17468SOL    HW256199   4.955   9.721   7.247
17469SOL     OW56200   4.884   9.517   7.063
17469SOL    HW156201   4.884   9.581   7.140
17469SOL    HW256202   4.912   9.565   6.980
17470SOL     OW56203   3.764   9.854   6.700
17470SOL    HW156204   3.849   9.821   6.659
17470SOL    HW256205   3.777   9.869   6.798
17471SOL     OW56206   3.913   9.830   7.308
17471SOL    HW156207   3.972   9.790   7.238
17471SOL    HW256208   3.855   9.901   7.267
17472SOL     OW56209   4.395   9.774   6.855
17472SOL    HW156210   4.361   9.685   6.825
17472SOL    HW256211   4.421   9.828   6.775
17473SOL     OW56212   5.450   9.445   6.109
17473SOL    HW156213   5.523   9.428   6.042
17473SOL    HW256214   5.419   9.358   6.147
17474SOL     OW56215   5.565   9.485   6.549
17474SOL    HW156216   5.604   9.400   6.513
17474SOL    HW256217   5.467   9.487   6.530
17475SOL     OW56218   3.987   9.636   6.306
17475SOL    HW156219   3.908   9.687   6.272
17475SOL    HW256220   3.978   9.621   6.404
17476SOL     OW56221   4.738   9.546   6.557
17476SOL    HW156222   4.730   9.510   6.464
17476SOL    HW256223   4.736   9.470   6.622
17477SOL     OW56224   5.433   9.695   6.967
17477SOL    HW156225   5.506   9.764   6.971
17477SOL    HW256226   5.461   9.620   6.908
17478SOL     OW56227   4.396   9.513   7.075
17478SOL    HW156228   4.486   9.497   7.035
17478SOL    HW256229   4.404   9.518   7.174
17479SOL     OW56230   3.799   9.655   5.619
17479SOL    HW156231   3.707   9.627   5.590
17479SOL    HW256232   3.830   9.732   5.563
17480SOL     OW56233   3.796   9.476   5.904
17480SOL    HW156234   3.779   9.559   5.850
17480SOL    HW256235   3.886   9.439   5.882
17481SOL     OW56236   4.440   9.875   7.294
17481SOL    HW156237   4.459   9.940   7.368
17481SOL    HW256238   4.500   9.795   7.303
17482SOL     OW56239   5.548   9.502   6.813
17482SOL    HW156240   5.544   9.412   6.857
17482SOL    HW256241   5.551   9.491   6.714
17483SOL     OW56242   4.152   9.734   6.106
17483SOL    HW156243   4.182   9.662   6.044
17483SOL    HW256244   4.113   9.694   6.189
17484SOL     OW56245   4.041   9.857   6.866
17484SOL    HW156246   4.079   9.798   6.938
17484SOL    HW256247   4.081   9.831   6.778
17485SOL     OW56248   5.148   9.524   6.698
17485SOL    HW156249   5.200   9.459   6.753
17485SOL    HW256250   5.099   9.587   6.759
17486SOL     OW56251   4.725   9.344   6.740
17486SOL    HW156252   4.662   9.272   6.709
17486SOL    HW256253   4.818   9.308   6.740
17487SOL     OW56254   5.024   9.763   6.277
17487SOL    HW156255   4.965   9.843   6.281
17487SOL    HW256256   5.039   9.728   6.370
17488SOL     OW56257   5.317   9.531   6.468
17488SOL    HW156258   5.233   9.530   6.522
17488SOL    HW256259   5.319   9.614   6.412
17489SOL     OW56260   3.949   9.585   8.444
17489SOL    HW156261   3.984   9.568   8.536
17489SOL    HW256262   3.861   9.540   8.432
17490SOL     OW56263   3.743   9.678   8.095
17490SOL    HW156264   3.661   9.721   8.134
17490SOL    HW256265   3.715   9.605   8.032
17491SOL     OW56266   4.162   9.702   8.947
17491SOL    HW156267   4.244   9.646   8.956
17491SOL    HW256268   4.081   9.644   8.951
17492SOL     OW56269   5.327   9.757   8.185
17492SOL    HW156270   5.253   9.803   8.135
17492SOL    HW256271   5.378   9.825   8.238
17493SOL     OW56272   5.318   9.424   8.928
17493SOL    HW156273   5.300   9.491   8.856
17493SOL    HW256274   5.315   9.470   9.017
17494SOL     OW56275   3.846   9.953   8.011
17494SOL    HW156276   3.801   9.865   8.028
17494SOL    HW256277   3.845  10.007   8.095
17495SOL     OW56278   4.533   9.314   7.950
17495SOL    HW156279   4.573   9.405   7.941
17495SOL    HW256280   4.433   9.322   7.956
17496SOL     OW56281   5.005   9.655   8.392
17496SOL    HW156282   4.919   9.605   8.379
17496SOL    HW256283   5.067   9.601   8.448
17497SOL     OW56284   4.531   9.915   8.913
17497SOL    HW156285   4.484   9.912   9.002
17497SOL    HW256286   4.480   9.860   8.847
17498SOL     OW56287   5.118   9.779   9.122
17498SOL    HW156288   5.098   9.822   9.210
17498SOL    HW256289   5.196   9.717   9.131
17499SOL     OW56290   4.715   9.720   8.690
17499SOL    HW156291   4.638   9.754   8.744
17499SOL    HW256292   4.681   9.669   8.611
17500SOL     OW56293   4.589   9.658   7.643
17500SOL    HW156294   4.648   9.721   7.594
17500SOL    HW256295   4.608   9.564   7.614
17501SOL     OW56296   5.443   9.895   9.279
17501SOL    HW156297   5.417   9.984   9.243
17501SOL    HW256298   5.441   9.827   9.206
17502SOL     OW56299   4.274   9.506   8.333
17502SOL    HW156300   4.269   9.501   8.433
17502SOL    HW256301   4.276   9.602   8.304
17503SOL     OW56302   5.182  10.045   8.176
17503SOL    HW156303   5.177   9.980   8.251
17503SOL    HW256304   5.262  10.104   8.189
17504SOL     OW56305   5.124   9.417   7.874
17504SOL    HW156306   5.100   9.380   7.784
17504SOL    HW256307   5.223   9.433   7.878
17505SOL     OW56308   5.271   9.532   9.177
17505SOL    HW156309   5.266   9.569   9.269
17505SOL    HW256310   5.199   9.463   9.165
17506SOL     OW56311   4.338   9.432   7.565
17506SOL    HW156312   4.436   9.410   7.572
17506SOL    HW256313   4.307   9.415   7.472
17507SOL     OW56314   4.505   9.574   9.197
17507SOL    HW156315   4.572   9.513   9.240
17507SOL    HW256316   4.432   9.593   9.262
17508SOL     OW56317   5.075   9.900   8.881
17508SOL    HW156318   5.103   9.857   8.966
17508SOL    HW256319   5.100   9.996   8.882
17509SOL     OW56320   4.646   9.813   8.347
17509SOL    HW156321   4.621   9.804   8.251
17509SOL    HW256322   4.694   9.731   8.378
17510SOL     OW56323   4.263   9.374   7.960
17510SOL    HW156324   4.182   9.375   8.018
17510SOL    HW256325   4.266   9.457   7.905
17511SOL     OW56326   4.021   9.345   7.619
17511SOL    HW156327   4.070   9.429   7.598
17511SOL    HW256328   4.083   9.280   7.664
17512SOL     OW56329   4.659   9.546   7.928
17512SOL    HW156330   4.611   9.587   7.850
17512SOL    HW256331   4.758   9.544   7.909
17513SOL     OW56332   4.800   9.993   8.912
17513SOL    HW156333   4.720   9.932   8.915
17513SOL    HW256334   4.881   9.940   8.888
17514SOL     OW56335   4.756   9.859   7.464
17514SOL    HW156336   4.715   9.941   7.425
17514SOL    HW256337   4.820   9.885   7.537
17515SOL     OW56338   3.802   9.866   8.834
17515SOL    HW156339   3.894   9.865   8.793
17515SOL    HW256340   3.796   9.940   8.901
17516SOL     OW56341   4.285   9.532   8.595
17516SOL    HW156342   4.323   9.448   8.632
17516SOL    HW256343   4.197   9.551   8.639
17517SOL     OW56344   4.741   9.349   8.201
17517SOL    HW156345   4.669   9.354   8.132
17517SOL    HW256346   4.717   9.280   8.270
17518SOL     OW56347   4.251   9.566   7.776
17518SOL    HW156348   4.278   9.507   7.701
17518SOL    HW256349   4.251   9.661   7.745
17519SOL     OW56350   4.639   9.399   8.850
17519SOL    HW156351   4.664   9.379   8.755
17519SOL    HW256352   4.711   9.455   8.892
17520SOL     OW56353   4.998   9.696   8.710
17520SOL    HW156354   5.019   9.770   8.774
17520SOL    HW256355   4.909   9.713   8.667
17521SOL     OW56356   5.306   9.949   7.920
17521SOL    HW156357   5.275  10.010   7.993
17521SOL    HW256358   5.356  10.001   7.851
17522SOL     OW56359   4.737   9.415   9.218
17522SOL    HW156360   4.743   9.500   9.166
17522SOL    HW256361   4.769   9.339   9.161
17523SOL     OW56362   4.933   9.835   7.723
17523SOL    HW156363   4.946   9.751   7.777
17523SOL    HW256364   4.904   9.909   7.783
17524SOL     OW56365   4.031   9.523   8.679
17524SOL    HW156366   4.008   9.560   8.769
17524SOL    HW256367   4.001   9.428   8.673
17525SOL     OW56368   4.456   9.944   8.512
17525SOL    HW156369   4.515   9.918   8.436
17525SOL    HW256370   4.428  10.040   8.501
17526SOL     OW56371   4.031   9.373   8.066
17526SOL    HW156372   4.020   9.467   8.099
17526SOL    HW256373   4.026   9.310   8.143
17527SOL     OW56374   5.346   9.677   7.822
17527SOL    HW156375   5.348   9.601   7.886
17527SOL    HW256376   5.298   9.754   7.862
17528SOL     OW56377   5.264   9.584   7.573
17528SOL    HW156378   5.203   9.509   7.596
17528SOL    HW256379   5.286   9.636   7.656
17529SOL     OW56380   4.043  10.120   8.397
17529SOL    HW156381   4.136  10.156   8.402
17529SOL    HW256382   4.037  10.035   8.449
17530SOL     OW56383   4.063   9.819   8.454
17530SOL    HW156384   4.011   9.736   8.437
17530SOL    HW256385   4.140   9.824   8.390
17531SOL     OW56386   4.862   9.690   9.126
17531SOL    HW156387   4.817   9.753   9.190
17531SOL    HW256388   4.955   9.721   9.109
17532SOL     OW56389   4.884   9.517   8.925
17532SOL    HW156390   4.884   9.581   9.002
17532SOL    HW256391   4.912   9.565   8.842
17533SOL     OW56392   3.764   9.854   8.562
17533SOL    HW156393   3.849   9.821   8.521
17533SOL    HW256394   3.777   9.869   8.660
17534SOL     OW56395   3.913   9.830   9.170
17534SOL    HW156396   3.972   9.790   9.100
17534SOL    HW256397   3.855   9.901   9.129
17535SOL     OW56398   4.539   9.882   7.773
17535SOL    HW156399   4.546   9.793   7.727
17535SOL    HW256400   4.445   9.916   7.765
17536SOL     OW56401   4.395   9.774   8.717
17536SOL    HW156402   4.361   9.685   8.687
17536SOL    HW256403   4.421   9.828   8.637
17537SOL     OW56404   5.450   9.445   7.971
17537SOL    HW156405   5.523   9.428   7.904
17537SOL    HW256406   5.419   9.358   8.009
17538SOL     OW56407   5.565   9.485   8.411
17538SOL    HW156408   5.604   9.400   8.375
17538SOL    HW256409   5.467   9.487   8.392
17539SOL     OW56410   3.987   9.636   8.168
17539SOL    HW156411   3.908   9.687   8.134
17539SOL    HW256412   3.978   9.621   8.266
17540SOL     OW56413   4.738   9.546   8.419
17540SOL    HW156414   4.730   9.510   8.326
17540SOL    HW256415   4.736   9.470   8.484
17541SOL     OW56416   4.396   9.513   8.937
17541SOL    HW156417   4.486   9.497   8.897
17541SOL    HW256418   4.404   9.518   9.036
17542SOL     OW56419   3.799   9.655   7.481
17542SOL    HW156420   3.707   9.627   7.452
17542SOL    HW256421   3.830   9.732   7.425
17543SOL     OW56422   3.796   9.476   7.766
17543SOL    HW156423   3.779   9.559   7.712
17543SOL    HW256424   3.886   9.439   7.744
17544SOL     OW56425   4.440   9.875   9.156
17544SOL    HW156426   4.459   9.940   9.230
17544SOL    HW256427   4.500   9.795   9.165
17545SOL     OW56428   4.949   9.635   7.897
17545SOL    HW156429   5.014   9.561   7.886
17545SOL    HW256430   4.969   9.685   7.981
17546SOL     OW56431   5.501   9.652   9.090
17546SOL    HW156432   5.484   9.683   8.996
17546SOL    HW256433   5.417   9.615   9.128
17547SOL     OW56434   4.807  10.294   7.535
17547SOL    HW156435   4.784  10.347   7.453
17547SOL    HW256436   4.888  10.238   7.516
17548SOL     OW56437   5.548   9.502   8.675
17548SOL    HW156438   5.544   9.412   8.719
17548SOL    HW256439   5.551   9.491   8.576
17549SOL     OW56440   4.152   9.734   7.968
17549SOL    HW156441   4.182   9.662   7.906
17549SOL    HW256442   4.113   9.694   8.051
17550SOL     OW56443   4.041   9.857   8.728
17550SOL    HW156444   4.079   9.798   8.800
17550SOL    HW256445   4.081   9.831   8.640
17551SOL     OW56446   5.148   9.524   8.560
17551SOL    HW156447   5.200   9.459   8.615
17551SOL    HW256448   5.099   9.587   8.621
17552SOL     OW56449   4.725   9.344   8.602
17552SOL    HW156450   4.662   9.272   8.571
17552SOL    HW256451   4.818   9.308   8.602
17553SOL     OW56452   5.076   9.362   7.616
17553SOL    HW156453   5.111   9.321   7.532
17553SOL    HW256454   4.986   9.324   7.636
17554SOL     OW56455   5.024   9.763   8.139
17554SOL    HW156456   4.965   9.843   8.143
17554SOL    HW256457   5.039   9.728   8.232
17555SOL     OW56458   5.317   9.531   8.330
17555SOL    HW156459   5.233   9.530   8.384
17555SOL    HW256460   5.319   9.614   8.274
17556SOL     OW56461   5.479   9.917   9.541
17556SOL    HW156462   5.467   9.904   9.442
17556SOL    HW256463   5.449   9.836   9.590
17557SOL     OW56464   3.846   9.953   9.873
17557SOL    HW156465   3.801   9.865   9.890
17557SOL    HW256466   3.845  10.007   9.957
17558SOL     OW56467   4.533   9.314   9.812
17558SOL    HW156468   4.573   9.405   9.803
17558SOL    HW256469   4.433   9.322   9.818
17559SOL     OW56470   4.765  10.011   9.739
17559SOL    HW156471   4.791  10.007   9.835
17559SOL    HW256472   4.680   9.960   9.725
17560SOL     OW56473   4.589   9.658   9.505
17560SOL    HW156474   4.648   9.721   9.456
17560SOL    HW256475   4.608   9.564   9.476
17561SOL     OW56476   5.124   9.417   9.736
17561SOL    HW156477   5.100   9.380   9.646
17561SOL    HW256478   5.223   9.433   9.740
17562SOL     OW56479   4.263   9.374   9.822
17562SOL    HW156480   4.182   9.375   9.880
17562SOL    HW256481   4.266   9.457   9.767
17563SOL     OW56482   4.021   9.345   9.481
17563SOL    HW156483   4.070   9.429   9.460
17563SOL    HW256484   4.083   9.280   9.526
17564SOL     OW56485   4.659   9.546   9.790
17564SOL    HW156486   4.611   9.587   9.712
17564SOL    HW256487   4.758   9.544   9.771
17565SOL     OW56488   4.756   9.859   9.326
17565SOL    HW156489   4.715   9.941   9.287
17565SOL    HW256490   4.820   9.885   9.399
17566SOL     OW56491   4.590   9.764   9.952
17566SOL    HW156492   4.558   9.836   9.890
17566SOL    HW256493   4.614   9.683   9.899
17567SOL     OW56494   4.251   9.566   9.638
17567SOL    HW156495   4.278   9.507   9.563
17567SOL    HW256496   4.251   9.661   9.607
17568SOL     OW56497   5.306   9.949   9.782
17568SOL    HW156498   5.275  10.010   9.855
17568SOL    HW256499   5.356  10.001   9.713
17569SOL     OW56500   4.933   9.835   9.585
17569SOL    HW156501   4.946   9.751   9.639
17569SOL    HW256502   4.904   9.909   9.645
17570SOL     OW56503   4.031   9.373   9.928
17570SOL    HW156504   4.020   9.467   9.961
17570SOL    HW256505   4.026   9.310  10.005
17571SOL     OW56506   5.346   9.677   9.684
17571SOL    HW156507   5.348   9.601   9.748
17571SOL    HW256508   5.298   9.754   9.724
17572SOL     OW56509   5.264   9.584   9.435
17572SOL    HW156510   5.203   9.509   9.458
17572SOL    HW256511   5.286   9.636   9.518
17573SOL     OW56512   4.063   9.819  10.316
17573SOL    HW156513   4.011   9.736  10.299
17573SOL    HW256514   4.140   9.824  10.252
17574SOL     OW56515   4.539   9.882   9.635
17574SOL    HW156516   4.546   9.793   9.589
17574SOL    HW256517   4.445   9.916   9.627
17575SOL     OW56518   5.450   9.445   9.833
17575SOL    HW156519   5.523   9.428   9.766
17575SOL    HW256520   5.419   9.358   9.871
17576SOL     OW56521   3.796   9.476   9.628
17576SOL    HW156522   3.779   9.559   9.574
17576SOL    HW256523   3.886   9.439   9.606
17577SOL     OW56524   4.949   9.635   9.759
17577SOL    HW156525   5.014   9.561   9.748
17577SOL    HW256526   4.969   9.685   9.843
17578SOL     OW56527   4.807  10.294   9.397
17578SOL    HW156528   4.784  10.347   9.315
17578SOL    HW256529   4.888  10.238   9.378
17579SOL     OW56530   4.152   9.734   9.830
17579SOL    HW156531   4.182   9.662   9.768
17579SOL    HW256532   4.113   9.694   9.913
17580SOL     OW56533   5.076   9.362   9.478
17580SOL    HW156534   5.111   9.321   9.394
17580SOL    HW256535   4.986   9.324   9.498
17581SOL     OW56536   5.024   9.763  10.001
17581SOL    HW156537   4.965   9.843  10.005
17581SOL    HW256538   5.039   9.728  10.094
17582SOL     OW56539   5.816   0.628   0.113
17582SOL    HW156540   5.723   0.626   0.150
17582SOL    HW256541   5.817   0.589   0.021
17583SOL     OW56542   5.811   0.275   0.996
17583SOL    HW156543   5.846   0.258   1.088
17583SOL    HW256544   5.723   0.230   0.984
17584SOL     OW56545   5.605   0.368   0.647
17584SOL    HW156546   5.523   0.411   0.686
17584SOL    HW256547   5.577   0.295   0.584
17585SOL     OW56548   7.141   1.511   0.703
17585SOL    HW156549   7.084   1.495   0.784
17585SOL    HW256550   7.082   1.521   0.623
17586SOL     OW56551   6.721   0.703   0.717
17586SOL    HW156552   6.778   0.781   0.692
17586SOL    HW256553   6.661   0.729   0.793
17587SOL     OW56554   7.341   0.607   0.231
17587SOL    HW156555   7.329   0.594   0.132
17587SOL    HW256556   7.311   0.526   0.280
17588SOL     OW56557   6.354   1.144   1.023
17588SOL    HW156558   6.276   1.161   1.083
17588SOL    HW256559   6.388   1.231   0.987
17589SOL     OW56560   6.271   1.012   0.665
17589SOL    HW156561   6.340   0.996   0.735
17589SOL    HW256562   6.198   1.069   0.703
17590SOL     OW56563   6.272   1.161   1.803
17590SOL    HW156564   6.332   1.240   1.817
17590SOL    HW256565   6.186   1.192   1.762
17591SOL     OW56566   7.046   1.505   1.339
17591SOL    HW156567   7.070   1.599   1.365
17591SOL    HW256568   7.030   1.451   1.421
17592SOL     OW56569   6.024   0.392   1.499
17592SOL    HW156570   6.106   0.336   1.508
17592SOL    HW256571   5.943   0.334   1.503
17593SOL     OW56572   7.189   0.447   0.737
17593SOL    HW156573   7.115   0.493   0.687
17593SOL    HW256574   7.240   0.515   0.790
17594SOL     OW56575   5.817   1.713   0.483
17594SOL    HW156576   5.851   1.790   0.537
17594SOL    HW256577   5.861   1.713   0.393
17595SOL     OW56578   6.713   1.341   1.690
17595SOL    HW156579   6.760   1.341   1.778
17595SOL    HW256580   6.665   1.254   1.679
17596SOL     OW56581   5.816   1.434   0.538
17596SOL    HW156582   5.790   1.530   0.538
17596SOL    HW256583   5.745   1.380   0.583
17597SOL     OW56584   5.826   1.091   0.886
17597SOL    HW156585   5.840   1.007   0.938
17597SOL    HW256586   5.771   1.155   0.941
17598SOL     OW56587   6.206   1.786   1.439
17598SOL    HW156588   6.114   1.769   1.474
17598SOL    HW256589   6.234   1.878   1.465
17599SOL     OW56590   7.180   0.114   1.480
17599SOL    HW156591   7.162   0.181   1.408
17599SOL    HW256592   7.177   0.160   1.569
17600SOL     OW56593   5.708   0.643   0.563
17600SOL    HW156594   5.663   0.555   0.580
17600SOL    HW256595   5.707   0.697   0.647
17601SOL     OW56596   7.428   1.767   0.359
17601SOL    HW156597   7.482   1.738   0.439
17601SOL    HW256598   7.458   1.857   0.330
17602SOL     OW56599   5.613   1.596   0.117
17602SOL    HW156600   5.594   1.500   0.138
17602SOL    HW256601   5.580   1.654   0.192
17603SOL     OW56602   7.275   0.922   0.612
17603SOL    HW156603   7.370   0.893   0.620
17603SOL    HW256604   7.267   0.987   0.537
17604SOL     OW56605   7.227   1.108   0.432
17604SOL    HW156606   7.313   1.110   0.380
17604SOL    HW256607   7.241   1.155   0.520
17605SOL     OW56608   5.699   0.737   1.597
17605SOL    HW156609   5.787   0.724   1.642
17605SOL    HW256610   5.686   0.834   1.575
17606SOL     OW56611   6.199   1.365   0.726
17606SOL    HW156612   6.150   1.278   0.735
17606SOL    HW256613   6.176   1.408   0.639
17607SOL     OW56614   6.879   1.228   1.423
17607SOL    HW156615   6.916   1.155   1.365
17607SOL    HW256616   6.931   1.233   1.508
17608SOL     OW56617   6.395   0.004   0.502
17608SOL    HW156618   6.435   0.095   0.493
17608SOL    HW256619   6.295   0.012   0.508
17609SOL     OW56620   5.783   0.976   1.264
17609SOL    HW156621   5.872   0.931   1.250
17609SOL    HW256622   5.710   0.911   1.245
17610SOL     OW56623   7.111   0.999   0.190
17610SOL    HW156624   7.048   0.923   0.203
17610SOL    HW256625   7.159   1.017   0.276
17611SOL     OW56626   6.773   1.792   1.616
17611SOL    HW156627   6.797   1.852   1.540
17611SOL    HW256628   6.780   1.697   1.586
17612SOL     OW56629   5.903   0.251   1.801
17612SOL    HW156630   5.974   0.322   1.807
17612SOL    HW256631   5.815   0.290   1.829
17613SOL     OW56632   7.052   1.417   0.953
17613SOL    HW156633   6.993   1.423   1.033
17613SOL    HW256634   7.037   1.329   0.907
17614SOL     OW56635   7.253   1.714   0.572
17614SOL    HW156636   7.212   1.691   0.484
17614SOL    HW256637   7.235   1.640   0.637
17615SOL     OW56638   6.184   0.729   0.270
17615SOL    HW156639   6.208   0.798   0.202
17615SOL    HW256640   6.106   0.762   0.324
17616SOL     OW56641   6.867   0.345   0.944
17616SOL    HW156642   6.781   0.295   0.931
17616SOL    HW256643   6.929   0.291   1.000
17617SOL     OW56644   7.162   1.662   0.307
17617SOL    HW156645   7.251   1.708   0.310
17617SOL    HW256646   7.141   1.638   0.212
17618SOL     OW56647   6.980   0.469   1.674
17618SOL    HW156648   6.960   0.512   1.762
17618SOL    HW256649   7.058   0.407   1.683
17619SOL     OW56650   6.577   0.410   1.242
17619SOL    HW156651   6.500   0.444   1.296
17619SOL    HW256652   6.543   0.359   1.163
17620SOL     OW56653   6.627   0.701   0.429
17620SOL    HW156654   6.653   0.697   0.525
17620SOL    HW256655   6.542   0.650   0.415
17621SOL     OW56656   5.662   0.811   0.789
17621SOL    HW156657   5.761   0.799   0.798
17621SOL    HW256658   5.638   0.906   0.810
17622SOL     OW56659   5.716   1.821   1.571
17622SOL    HW156660   5.706   1.806   1.670
17622SOL    HW256661   5.630   1.857   1.535
17623SOL     OW56662   6.451   0.348   0.195
17623SOL    HW156663   6.510   0.411   0.146
17623SOL    HW256664   6.470   0.254   0.166
17624SOL     OW56665   6.948   1.144   0.545
17624SOL    HW156666   7.031   1.115   0.497
17624SOL    HW256667   6.899   1.211   0.489
17625SOL     OW56668   6.136   0.196   0.885
17625SOL    HW156669   6.131   0.191   0.985
17625SOL    HW256670   6.138   0.292   0.856
17626SOL     OW56671   6.594   1.456   0.477
17626SOL    HW156672   6.548   1.528   0.425
17626SOL    HW256673   6.590   1.476   0.575
17627SOL     OW56674   7.381   1.066   0.873
17627SOL    HW156675   7.319   1.051   0.797
17627SOL    HW256676   7.329   1.077   0.958
17628SOL     OW56677   6.813   1.550   1.506
17628SOL    HW156678   6.819   1.473   1.570
17628SOL    HW256679   6.761   1.524   1.426
17629SOL     OW56680   5.907   0.943   0.242
17629SOL    HW156681   5.989   0.982   0.200
17629SOL    HW256682   5.880   0.861   0.193
17630SOL     OW56683   7.044   0.735   0.728
17630SOL    HW156684   7.039   0.670   0.803
17630SOL    HW256685   7.124   0.794   0.741
17631SOL     OW56686   6.047   1.266   1.727
17631SOL    HW156687   5.997   1.267   1.641
17631SOL    HW256688   5.984   1.248   1.803
17632SOL     OW56689   6.697   1.776   0.237
17632SOL    HW156690   6.637   1.714   0.287
17632SOL    HW256691   6.728   1.732   0.152
17633SOL     OW56692   5.788   0.285   1.498
17633SOL    HW156693   5.708   0.345   1.485
17633SOL    HW256694   5.778   0.236   1.584
17634SOL     OW56695   7.218   1.377   0.081
17634SOL    HW156696   7.186   1.471   0.071
17634SOL    HW256697   7.142   1.314   0.069
17635SOL     OW56698   6.050   1.743   0.323
17635SOL    HW156699   6.083   1.782   0.409
17635SOL    HW256700   6.126   1.736   0.258
17636SOL     OW56701   6.986   0.107   0.426
17636SOL    HW156702   6.962   0.070   0.336
17636SOL    HW256703   7.085   0.123   0.430
17637SOL     OW56704   5.835   1.785   1.241
17637SOL    HW156705   5.892   1.720   1.291
17637SOL    HW256706   5.819   1.752   1.148
17638SOL     OW56707   6.526   1.698   0.904
17638SOL    HW156708   6.606   1.641   0.925
17638SOL    HW256709   6.477   1.658   0.827
17639SOL     OW56710   5.968   0.700   0.480
17639SOL    HW156711   6.013   0.610   0.477
17639SOL    HW256712   5.874   0.689   0.513
17640SOL     OW56713   7.133   0.222   1.729
17640SOL    HW156714   7.128   0.259   1.821
17640SOL    HW256715   7.061   0.153   1.717
17641SOL     OW56716   6.200   0.122   0.117
17641SOL    HW156717   6.298   0.100   0.124
17641SOL    HW256718   6.169   0.105   0.024
17642SOL     OW56719   6.367   0.264   1.749
17642SOL    HW156720   6.434   0.203   1.792
17642SOL    HW256721   6.294   0.283   1.814
17643SOL     OW56722   6.474   1.514   1.195
17643SOL    HW156723   6.451   1.489   1.101
17643SOL    HW256724   6.535   1.445   1.234
17644SOL     OW56725   6.937   0.590   1.433
17644SOL    HW156726   6.965   0.547   1.518
17644SOL    HW256727   6.962   0.686   1.434
17645SOL     OW56728   6.389   1.402   0.924
17645SOL    HW156729   6.479   1.416   0.882
17645SOL    HW256730   6.318   1.404   0.853
17646SOL     OW56731   6.508   0.503   0.899
17646SOL    HW156732   6.483   0.494   0.803
17646SOL    HW256733   6.556   0.421   0.930
17647SOL     OW56734   6.125   0.064   0.512
17647SOL    HW156735   6.044   0.065   0.570
17647SOL    HW256736   6.128   0.147   0.457
17648SOL     OW56737   7.020   1.188   0.041
17648SOL    HW156738   7.052   1.112   0.098
17648SOL    HW256739   6.928   1.215   0.071
17649SOL     OW56740   5.883   0.035   0.171
17649SOL    HW156741   5.932   0.119   0.150
17649SOL    HW256742   5.945  -0.030   0.216
17650SOL     OW56743   6.521   0.236   0.480
17650SOL    HW156744   6.473   0.277   0.402
17650SOL    HW256745   6.620   0.234   0.461
17651SOL     OW56746   6.045   1.152   0.741
17651SOL    HW156747   5.974   1.125   0.806
17651SOL    HW256748   6.019   1.124   0.648
17652SOL     OW56749   6.618   0.549   0.016
17652SOL    HW156750   6.577   0.631  -0.023
17652SOL    HW256751   6.682   0.575   0.089
17653SOL     OW56752   5.664   0.556   1.386
17653SOL    HW156753   5.756   0.555   1.345
17653SOL    HW256754   5.658   0.630   1.453
17654SOL     OW56755   6.147   0.222   1.147
17654SOL    HW156756   6.185   0.138   1.184
17654SOL    HW256757   6.059   0.241   1.191
17655SOL     OW56758   6.452   0.454   0.642
17655SOL    HW156759   6.420   0.526   0.580
17655SOL    HW256760   6.476   0.373   0.589
17656SOL     OW56761   6.603   0.039   0.753
17656SOL    HW156762   6.531   0.044   0.684
17656SOL    HW256763   6.579  -0.030   0.822
17657SOL     OW56764   7.015   1.173   0.867
17657SOL    HW156765   6.960   1.089   0.860
17657SOL    HW256766   7.041   1.202   0.775
17658SOL     OW56767   7.052   0.590   0.992
17658SOL    HW156768   7.022   0.495   0.999
17658SOL    HW256769   7.125   0.606   1.058
17659SOL     OW56770   7.443   0.833   0.377
17659SOL    HW156771   7.485   0.769   0.441
17659SOL    HW256772   7.405   0.782   0.299
17660SOL     OW56773   7.250   1.280   0.657
17660SOL    HW156774   7.349   1.288   0.671
17660SOL    HW256775   7.205   1.364   0.688
17661SOL     OW56776   6.976   0.575   0.078
17661SOL    HW156777   6.922   0.554   0.159
17661SOL    HW256778   7.067   0.534   0.087
17662SOL     OW56779   6.113   0.256   0.328
17662SOL    HW156780   6.140   0.197   0.253
17662SOL    HW256781   6.113   0.351   0.297
17663SOL     OW56782   7.340   1.223   1.588
17663SOL    HW156783   7.431   1.184   1.575
17663SOL    HW256784   7.348   1.319   1.612
17664SOL     OW56785   6.650   1.347   1.340
17664SOL    HW156786   6.570   1.324   1.395
17664SOL    HW256787   6.733   1.321   1.389
17665SOL     OW56788   7.178   1.629   1.625
17665SOL    HW156789   7.205   1.663   1.535
17665SOL    HW256790   7.257   1.591   1.671
17666SOL     OW56791   6.697   1.195   1.100
17666SOL    HW156792   6.657   1.239   1.181
17666SOL    HW256793   6.656   1.232   1.017
17667SOL     OW56794   7.224   1.099   1.079
17667SOL    HW156795   7.229   1.180   1.138
17667SOL    HW256796   7.138   1.101   1.028
17668SOL     OW56797   6.501   0.089   1.402
17668SOL    HW156798   6.526   0.069   1.307
17668SOL    HW256799   6.573   0.145   1.444
17669SOL     OW56800   6.566   1.116   1.719
17669SOL    HW156801   6.467   1.122   1.729
17669SOL    HW256802   6.589   1.036   1.663
17670SOL     OW56803   6.291   1.050   0.368
17670SOL    HW156804   6.277   1.057   0.467
17670SOL    HW256805   6.375   0.999   0.350
17671SOL     OW56806   5.996   0.813   1.251
17671SOL    HW156807   6.082   0.825   1.301
17671SOL    HW256808   5.954   0.726   1.278
17672SOL     OW56809   6.860   0.386   1.262
17672SOL    HW156810   6.881   0.460   1.326
17672SOL    HW256811   6.771   0.403   1.219
17673SOL     OW56812   5.650   1.564   1.331
17673SOL    HW156813   5.604   1.646   1.297
17673SOL    HW256814   5.748   1.583   1.340
17674SOL     OW56815   5.953   1.100   0.501
17674SOL    HW156816   5.946   1.183   0.445
17674SOL    HW256817   5.957   1.020   0.441
17675SOL     OW56818   6.152   0.537   0.865
17675SOL    HW156819   6.164   0.603   0.791
17675SOL    HW256820   6.198   0.571   0.948
17676SOL     OW56821   6.838   1.348   0.388
17676SOL    HW156822   6.888   1.425   0.428
17676SOL    HW256823   6.743   1.350   0.420
17677SOL     OW56824   6.858   1.445   1.142
17677SOL    HW156825   6.905   1.458   1.229
17677SOL    HW256826   6.792   1.371   1.151
17678SOL     OW56827   7.168   0.639   0.472
17678SOL    HW156828   7.137   0.700   0.545
17678SOL    HW256829   7.218   0.691   0.403
17679SOL     OW56830   5.988   0.751   1.598
17679SOL    HW156831   6.056   0.806   1.551
17679SOL    HW256832   6.028   0.663   1.625
17680SOL     OW56833   7.173   0.779   1.670
17680SOL    HW156834   7.081   0.817   1.665
17680SOL    HW256835   7.233   0.826   1.605
17681SOL     OW56836   6.599   0.105   1.770
17681SOL    HW156837   6.605   0.190   1.718
17681SOL    HW256838   6.631   0.029   1.713
17682SOL     OW56839   6.090   0.050   1.740
17682SOL    HW156840   6.048  -0.007   1.670
17682SOL    HW256841   6.024   0.119   1.772
17683SOL     OW56842   6.159   0.870   1.029
17683SOL    HW156843   6.203   0.959   1.020
17683SOL    HW256844   6.096   0.870   1.106
17684SOL     OW56845   6.946   0.862   1.045
17684SOL    HW156846   6.871   0.862   0.979
17684SOL    HW256847   6.983   0.770   1.054
17685SOL     OW56848   6.795   0.525   0.275
17685SOL    HW156849   6.808   0.441   0.329
17685SOL    HW256850   6.766   0.599   0.335
17686SOL     OW56851   5.893   0.213   1.231
17686SOL    HW156852   5.870   0.250   1.321
17686SOL    HW256853   5.863   0.118   1.225
17687SOL     OW56854   5.623   1.310   1.282
17687SOL    HW156855   5.676   1.261   1.350
17687SOL    HW256856   5.645   1.408   1.287
17688SOL     OW56857   6.318   0.634   1.064
17688SOL    HW156858   6.377   0.608   0.988
17688SOL    HW256859   6.290   0.730   1.053
17689SOL     OW56860   7.314   0.935   1.854
17689SOL    HW156861   7.268   0.928   1.765
17689SOL    HW256862   7.252   0.979   1.920
17690SOL     OW56863   5.893   0.063   0.618
17690SOL    HW156864   5.882   0.157   0.651
17690SOL    HW256865   5.888   0.000   0.695
17691SOL     OW56866   7.208   0.367   0.374
17691SOL    HW156867   7.210   0.291   0.438
17691SOL    HW256868   7.160   0.444   0.414
17692SOL     OW56869   6.609   0.766   0.966
17692SOL    HW156870   6.624   0.787   1.062
17692SOL    HW256871   6.579   0.671   0.957
17693SOL     OW56872   6.566   1.573   1.700
17693SOL    HW156873   6.546   1.617   1.612
17693SOL    HW256874   6.605   1.482   1.684
17694SOL     OW56875   7.445   1.518   1.605
17694SOL    HW156876   7.459   1.545   1.510
17694SOL    HW256877   7.528   1.540   1.658
17695SOL     OW56878   5.936   0.898   1.804
17695SOL    HW156879   6.012   0.942   1.852
17695SOL    HW256880   5.971   0.851   1.722
17696SOL     OW56881   7.126   0.274   0.125
17696SOL    HW156882   7.065   0.199   0.148
17696SOL    HW256883   7.148   0.326   0.208
17697SOL     OW56884   6.889   0.838   0.042
17697SOL    HW156885   6.923   0.745   0.057
17697SOL    HW256886   6.907   0.865  -0.053
17698SOL     OW56887   6.654   1.333   0.849
17698SOL    HW156888   6.661   1.249   0.794
17698SOL    HW256889   6.716   1.402   0.813
17699SOL     OW56890   5.905   0.810   0.949
17699SOL    HW156891   5.998   0.846   0.954
17699SOL    HW256892   5.899   0.725   1.001
17700SOL     OW56893   5.925   0.509   1.006
17700SOL    HW156894   5.873   0.426   0.989
17700SOL    HW256895   6.002   0.514   0.942
17701SOL     OW56896   6.724   0.380   1.678
17701SOL    HW156897   6.679   0.443   1.742
17701SOL    HW256898   6.817   0.411   1.661
17702SOL     OW56899   6.746   0.207   1.477
17702SOL    HW156900   6.746   0.271   1.554
17702SOL    HW256901   6.774   0.255   1.394
17703SOL     OW56902   5.594   1.326   0.200
17703SOL    HW156903   5.501   1.347   0.169
17703SOL    HW256904   5.604   1.227   0.213
17704SOL     OW56905   5.674   1.801   0.927
17704SOL    HW156906   5.632   1.715   0.900
17704SOL    HW256907   5.768   1.804   0.893
17705SOL     OW56908   5.626   0.544   1.114
17705SOL    HW156909   5.711   0.511   1.073
17705SOL    HW256910   5.639   0.559   1.212
17706SOL     OW56911   5.775   0.520   1.722
17706SOL    HW156912   5.834   0.480   1.652
17706SOL    HW256913   5.717   0.591   1.681
17707SOL     OW56914   6.955   0.950   1.660
17707SOL    HW156915   6.994   1.039   1.680
17707SOL    HW256916   6.965   0.930   1.563
17708SOL     OW56917   6.401   0.572   0.325
17708SOL    HW156918   6.408   0.483   0.279
17708SOL    HW256919   6.307   0.606   0.317
17709SOL     OW56920   7.243   0.604   1.206
17709SOL    HW156921   7.205   0.535   1.268
17709SOL    HW256922   7.325   0.568   1.162
17710SOL     OW56923   5.838   1.564   1.744
17710SOL    HW156924   5.808   1.621   1.820
17710SOL    HW256925   5.831   1.467   1.770
17711SOL     OW56926   6.516   1.678   1.465
17711SOL    HW156927   6.492   1.660   1.370
17711SOL    HW256928   6.546   1.772   1.475
17712SOL     OW56929   6.059   0.500   0.191
17712SOL    HW156930   6.120   0.580   0.195
17712SOL    HW256931   5.964   0.531   0.198
17713SOL     OW56932   5.745   1.137   1.466
17713SOL    HW156933   5.767   1.076   1.542
17713SOL    HW256934   5.755   1.088   1.380
17714SOL     OW56935   6.933   1.059   1.234
17714SOL    HW156936   6.957   0.996   1.160
17714SOL    HW256937   6.843   1.099   1.216
17715SOL     OW56938   6.888   0.855   0.309
17715SOL    HW156939   6.802   0.824   0.351
17715SOL    HW256940   6.884   0.841   0.210
17716SOL     OW56941   7.345   1.747   1.154
17716SOL    HW156942   7.406   1.777   1.081
17716SOL    HW256943   7.307   1.658   1.132
17717SOL     OW56944   6.838   1.731   1.128
17717SOL    HW156945   6.922   1.736   1.074
17717SOL    HW256946   6.815   1.635   1.146
17718SOL     OW56947   5.669   1.258   1.022
17718SOL    HW156948   5.664   1.257   1.122
17718SOL    HW256949   5.586   1.217   0.984
17719SOL     OW56950   6.274   1.662   1.716
17719SOL    HW156951   6.218   1.743   1.725
17719SOL    HW256952   6.326   1.666   1.630
17720SOL     OW56953   6.489   0.086   0.133
17720SOL    HW156954   6.540   0.087   0.047
17720SOL    HW256955   6.545   0.044   0.204
17721SOL     OW56956   7.312   0.135   0.523
17721SOL    HW156957   7.385   0.118   0.456
17721SOL    HW256958   7.281   0.048   0.561
17722SOL     OW56959   5.716   1.794   1.851
17722SOL    HW156960   5.675   1.720   1.904
17722SOL    HW256961   5.780   1.845   1.909
17723SOL     OW56962   6.866   0.927   0.672
17723SOL    HW156963   6.926   0.846   0.674
17723SOL    HW256964   6.906   0.996   0.612
17724SOL     OW56965   6.416   1.273   1.422
17724SOL    HW156966   6.411   1.306   1.517
17724SOL    HW256967   6.330   1.292   1.376
17725SOL     OW56968   6.258   1.616   0.154
17725SOL    HW156969   6.267   1.626   0.055
17725SOL    HW256970   6.218   1.527   0.175
17726SOL     OW56971   7.236   1.720   1.394
17726SOL    HW156972   7.289   1.730   1.310
17726SOL    HW256973   7.209   1.810   1.428
17727SOL     OW56974   7.427   0.175   0.963
17727SOL    HW156975   7.466   0.090   0.927
17727SOL    HW256976   7.329   0.177   0.944
17728SOL     OW56977   5.849   0.326   0.720
17728SOL    HW156978   5.770   0.377   0.686
17728SOL    HW256979   5.840   0.311   0.818
17729SOL     OW56980   6.780   1.612   0.031
17729SOL    HW156981   6.786   1.519   0.068
17729SOL    HW256982   6.721   1.612  -0.049
17730SOL     OW56983   6.408   1.002   1.372
17730SOL    HW156984   6.448   1.001   1.280
17730SOL    HW256985   6.418   1.094   1.412
17731SOL     OW56986   6.502   0.910   0.291
17731SOL    HW156987   6.565   0.948   0.223
17731SOL    HW256988   6.542   0.827   0.330
17732SOL     OW56989   7.090   1.607   0.044
17732SOL    HW156990   6.998   1.644   0.051
17732SOL    HW256991   7.128   1.627  -0.046
17733SOL     OW56992   5.958   1.288   1.490
17733SOL    HW156993   5.945   1.381   1.456
17733SOL    HW256994   5.874   1.236   1.477
17734SOL     OW56995   7.200   1.292   1.289
17734SOL    HW156996   7.260   1.295   1.369
17734SOL    HW256997   7.125   1.356   1.302
17735SOL     OW56998   6.625   1.098   0.696
17735SOL    HW156999   6.555   1.051   0.750
17735SOL    HW257000   6.684   1.030   0.653
17736SOL     OW57001   6.600   0.236   0.971
17736SOL    HW157002   6.592   0.200   0.878
17736SOL    HW257003   6.598   0.160   1.036
17737SOL     OW57004   6.176   1.487   0.491
17737SOL    HW157005   6.218   1.429   0.421
17737SOL    HW257006   6.132   1.566   0.447
17738SOL     OW57007   7.295   0.385   1.381
17738SOL    HW157008   7.368   0.454   1.385
17738SOL    HW257009   7.323   0.310   1.322
17739SOL     OW57010   5.841   1.348   0.290
17739SOL    HW157011   5.745   1.349   0.263
17739SOL    HW257012   5.853   1.401   0.374
17740SOL     OW57013   5.691   1.013   1.726
17740SOL    HW157014   5.614   0.980   1.780
17740SOL    HW257015   5.776   0.983   1.768
17741SOL     OW57016   6.258   0.203   1.489
17741SOL    HW157017   6.348   0.187   1.449
17741SOL    HW257018   6.266   0.208   1.588
17742SOL     OW57019   5.661   0.345   0.033
17742SOL    HW157020   5.569   0.317   0.004
17742SOL    HW257021   5.692   0.422  -0.023
17743SOL     OW57022   7.026   0.856   1.398
17743SOL    HW157023   6.969   0.908   1.335
17743SOL    HW257024   7.122   0.868   1.374
17744SOL     OW57025   6.769   1.335   0.119
17744SOL    HW157026   6.670   1.324   0.121
17744SOL    HW257027   6.803   1.350   0.212
17745SOL     OW57028   7.079   1.767   0.959
17745SOL    HW157029   7.112   1.831   0.890
17745SOL    HW257030   7.145   1.761   1.034
17746SOL     OW57031   7.036   1.220   1.633
17746SOL    HW157032   7.027   1.210   1.732
17746SOL    HW257033   7.132   1.213   1.607
17747SOL     OW57034   5.976   1.741   1.560
17747SOL    HW157035   5.885   1.782   1.558
17747SOL    HW257036   5.969   1.647   1.592
17748SOL     OW57037   7.260   0.883   1.254
17748SOL    HW157038   7.233   0.794   1.217
17748SOL    HW257039   7.261   0.951   1.181
17749SOL     OW57040   6.811   0.325   0.449
17749SOL    HW157041   6.876   0.251   0.438
17749SOL    HW257042   6.831   0.375   0.533
17750SOL     OW57043   6.180   0.745   0.652
17750SOL    HW157044   6.230   0.830   0.633
17750SOL    HW257045   6.092   0.747   0.604
17751SOL     OW57046   7.363   0.342   1.642
17751SOL    HW157047   7.346   0.373   1.548
17751SOL    HW257048   7.279   0.305   1.680
17752SOL     OW57049   7.316   0.934   1.517
17752SOL    HW157050   7.354   1.025   1.532
17752SOL    HW257051   7.308   0.917   1.418
17753SOL     OW57052   6.445   1.374   0.016
17753SOL    HW157053   6.399   1.389   0.104
17753SOL    HW257054   6.489   1.459  -0.014
17754SOL     OW57055   6.445   0.956   0.861
17754SOL    HW157056   6.499   0.887   0.909
17754SOL    HW257057   6.413   1.025   0.927
17755SOL     OW57058   6.669   0.984   0.087
17755SOL    HW157059   6.646   1.037   0.005
17755SOL    HW257060   6.750   0.928   0.068
17756SOL     OW57061   7.447   1.569   0.851
17756SOL    HW157062   7.376   1.557   0.781
17756SOL    HW257063   7.448   1.490   0.911
17757SOL     OW57064   5.807   1.314   1.844
17757SOL    HW157065   5.742   1.241   1.823
17757SOL    HW257066   5.811   1.328   1.942
17758SOL     OW57067   5.665   1.240   0.653
17758SOL    HW157068   5.664   1.193   0.741
17758SOL    HW257069   5.747   1.212   0.602
17759SOL     OW57070   6.258   1.391   1.624
17759SOL    HW157071   6.180   1.341   1.662
17759SOL    HW257072   6.255   1.486   1.655
17760SOL     OW57073   7.410   0.192   1.227
17760SOL    HW157074   7.406   0.102   1.271
17760SOL    HW257075   7.413   0.181   1.128
17761SOL     OW57076   6.014   0.424   0.520
17761SOL    HW157077   6.044   0.352   0.458
17761SOL    HW257078   5.975   0.384   0.603
17762SOL     OW57079   7.291   1.487   1.104
17762SOL    HW157080   7.198   1.462   1.077
17762SOL    HW257081   7.317   1.437   1.186
17763SOL     OW57082   5.903   0.547   1.280
17763SOL    HW157083   5.941   0.488   1.352
17763SOL    HW257084   5.943   0.521   1.192
17764SOL     OW57085   6.398   1.586   0.687
17764SOL    HW157086   6.430   1.596   0.593
17764SOL    HW257087   6.319   1.524   0.689
17765SOL     OW57088   7.010   0.214   1.112
17765SOL    HW157089   7.062   0.149   1.167
17765SOL    HW257090   6.961   0.277   1.173
17766SOL     OW57091   6.587   0.034   1.154
17766SOL    HW157092   6.524  -0.038   1.123
17766SOL    HW257093   6.680  -0.002   1.154
17767SOL     OW57094   6.356   1.330   0.301
17767SOL    HW157095   6.310   1.243   0.318
17767SOL    HW257096   6.447   1.327   0.342
17768SOL     OW57097   6.938   0.052   0.168
17768SOL    HW157098   6.973   0.011   0.084
17768SOL    HW257099   6.848   0.014   0.188
17769SOL     OW57100   6.886   0.453   0.691
17769SOL    HW157101   6.827   0.533   0.695
17769SOL    HW257102   6.901   0.418   0.784
17770SOL     OW57103   7.179   0.221   0.882
17770SOL    HW157104   7.095   0.220   0.936
17770SOL    HW257105   7.181   0.304   0.826
17771SOL     OW57106   5.625   1.077   0.300
17771SOL    HW157107   5.724   1.066   0.291
17771SOL    HW257108   5.585   0.991   0.332
17772SOL     OW57109   6.461   1.646   0.337
17772SOL    HW157110   6.384   1.611   0.283
17772SOL    HW257111   6.429   1.717   0.399
17773SOL     OW57112   5.816   0.628   1.975
17773SOL    HW157113   5.723   0.626   2.012
17773SOL    HW257114   5.817   0.589   1.883
17774SOL     OW57115   5.811   0.275   2.858
17774SOL    HW157116   5.846   0.258   2.950
17774SOL    HW257117   5.723   0.230   2.846
17775SOL     OW57118   5.605   0.368   2.509
17775SOL    HW157119   5.523   0.411   2.548
17775SOL    HW257120   5.577   0.295   2.446
17776SOL     OW57121   6.155   1.275   3.027
17776SOL    HW157122   6.062   1.268   2.990
17776SOL    HW257123   6.166   1.364   3.071
17777SOL     OW57124   7.141   1.511   2.565
17777SOL    HW157125   7.084   1.495   2.646
17777SOL    HW257126   7.082   1.521   2.485
17778SOL     OW57127   6.721   0.703   2.579
17778SOL    HW157128   6.778   0.781   2.554
17778SOL    HW257129   6.661   0.729   2.655
17779SOL     OW57130   6.354   1.144   2.885
17779SOL    HW157131   6.276   1.161   2.945
17779SOL    HW257132   6.388   1.231   2.849
17780SOL     OW57133   6.436   0.798   3.685
17780SOL    HW157134   6.432   0.874   3.750
17780SOL    HW257135   6.458   0.834   3.594
17781SOL     OW57136   6.271   1.012   2.527
17781SOL    HW157137   6.340   0.996   2.597
17781SOL    HW257138   6.198   1.069   2.565
17782SOL     OW57139   6.272   1.161   3.665
17782SOL    HW157140   6.332   1.240   3.679
17782SOL    HW257141   6.186   1.192   3.624
17783SOL     OW57142   5.921   1.435   2.923
17783SOL    HW157143   5.843   1.404   2.870
17783SOL    HW257144   5.979   1.493   2.866
17784SOL     OW57145   7.046   1.505   3.201
17784SOL    HW157146   7.070   1.599   3.227
17784SOL    HW257147   7.030   1.451   3.283
17785SOL     OW57148   6.024   0.392   3.361
17785SOL    HW157149   6.106   0.336   3.370
17785SOL    HW257150   5.943   0.334   3.365
17786SOL     OW57151   7.189   0.447   2.599
17786SOL    HW157152   7.115   0.493   2.549
17786SOL    HW257153   7.240   0.515   2.652
17787SOL     OW57154   5.817   1.713   2.345
17787SOL    HW157155   5.851   1.790   2.399
17787SOL    HW257156   5.861   1.713   2.255
17788SOL     OW57157   6.713   1.341   3.552
17788SOL    HW157158   6.760   1.341   3.640
17788SOL    HW257159   6.665   1.254   3.541
17789SOL     OW57160   5.816   1.434   2.400
17789SOL    HW157161   5.790   1.530   2.400
17789SOL    HW257162   5.745   1.380   2.445
17790SOL     OW57163   5.826   1.091   2.748
17790SOL    HW157164   5.840   1.007   2.800
17790SOL    HW257165   5.771   1.155   2.803
17791SOL     OW57166   6.206   1.786   3.301
17791SOL    HW157167   6.114   1.769   3.336
17791SOL    HW257168   6.234   1.878   3.327
17792SOL     OW57169   6.192   0.964   1.985
17792SOL    HW157170   6.199   1.048   1.931
17792SOL    HW257171   6.238   0.977   2.073
17793SOL     OW57172   7.180   0.114   3.342
17793SOL    HW157173   7.162   0.181   3.270
17793SOL    HW257174   7.177   0.160   3.431
17794SOL     OW57175   7.428   1.767   2.221
17794SOL    HW157176   7.482   1.738   2.301
17794SOL    HW257177   7.458   1.857   2.192
17795SOL     OW57178   5.613   1.596   1.979
17795SOL    HW157179   5.594   1.500   2.000
17795SOL    HW257180   5.580   1.654   2.054
17796SOL     OW57181   7.275   0.922   2.474
17796SOL    HW157182   7.370   0.893   2.482
17796SOL    HW257183   7.267   0.987   2.399
17797SOL     OW57184   7.227   1.108   2.294
17797SOL    HW157185   7.313   1.110   2.242
17797SOL    HW257186   7.241   1.155   2.382
17798SOL     OW57187   5.699   0.737   3.459
17798SOL    HW157188   5.787   0.724   3.504
17798SOL    HW257189   5.686   0.834   3.437
17799SOL     OW57190   6.199   1.365   2.588
17799SOL    HW157191   6.150   1.278   2.597
17799SOL    HW257192   6.176   1.408   2.501
17800SOL     OW57193   6.879   1.228   3.285
17800SOL    HW157194   6.916   1.155   3.227
17800SOL    HW257195   6.931   1.233   3.370
17801SOL     OW57196   6.395   0.004   2.364
17801SOL    HW157197   6.435   0.095   2.355
17801SOL    HW257198   6.295   0.012   2.370
17802SOL     OW57199   5.783   0.976   3.126
17802SOL    HW157200   5.872   0.931   3.112
17802SOL    HW257201   5.710   0.911   3.107
17803SOL     OW57202   7.111   0.999   2.052
17803SOL    HW157203   7.048   0.923   2.065
17803SOL    HW257204   7.159   1.017   2.138
17804SOL     OW57205   6.773   1.792   3.478
17804SOL    HW157206   6.797   1.852   3.402
17804SOL    HW257207   6.780   1.697   3.448
17805SOL     OW57208   5.903   0.251   3.663
17805SOL    HW157209   5.974   0.322   3.669
17805SOL    HW257210   5.815   0.290   3.691
17806SOL     OW57211   7.052   1.417   2.815
17806SOL    HW157212   6.993   1.423   2.895
17806SOL    HW257213   7.037   1.329   2.769
17807SOL     OW57214   7.253   1.714   2.434
17807SOL    HW157215   7.212   1.691   2.346
17807SOL    HW257216   7.235   1.640   2.499
17808SOL     OW57217   6.184   0.729   2.132
17808SOL    HW157218   6.208   0.798   2.064
17808SOL    HW257219   6.106   0.762   2.186
17809SOL     OW57220   6.867   0.345   2.806
17809SOL    HW157221   6.781   0.295   2.793
17809SOL    HW257222   6.929   0.291   2.862
17810SOL     OW57223   7.162   1.662   2.169
17810SOL    HW157224   7.251   1.708   2.172
17810SOL    HW257225   7.141   1.638   2.074
17811SOL     OW57226   6.393   0.605   3.327
17811SOL    HW157227   6.346   0.602   3.416
17811SOL    HW257228   6.342   0.550   3.261
17812SOL     OW57229   6.980   0.469   3.536
17812SOL    HW157230   6.960   0.512   3.624
17812SOL    HW257231   7.058   0.407   3.545
17813SOL     OW57232   6.559   0.890   3.434
17813SOL    HW157233   6.605   0.806   3.405
17813SOL    HW257234   6.503   0.924   3.359
17814SOL     OW57235   6.627   0.701   2.291
17814SOL    HW157236   6.653   0.697   2.387
17814SOL    HW257237   6.542   0.650   2.277
17815SOL     OW57238   5.662   0.811   2.651
17815SOL    HW157239   5.761   0.799   2.660
17815SOL    HW257240   5.638   0.906   2.672
17816SOL     OW57241   5.716   1.821   3.433
17816SOL    HW157242   5.706   1.806   3.532
17816SOL    HW257243   5.630   1.857   3.397
17817SOL     OW57244   6.451   0.348   2.057
17817SOL    HW157245   6.510   0.411   2.008
17817SOL    HW257246   6.470   0.254   2.028
17818SOL     OW57247   7.305   0.585   3.693
17818SOL    HW157248   7.279   0.674   3.657
17818SOL    HW257249   7.303   0.517   3.620
17819SOL     OW57250   6.948   1.144   2.407
17819SOL    HW157251   7.031   1.115   2.359
17819SOL    HW257252   6.899   1.211   2.351
17820SOL     OW57253   6.136   0.196   2.747
17820SOL    HW157254   6.131   0.191   2.847
17820SOL    HW257255   6.138   0.292   2.718
17821SOL     OW57256   6.594   1.456   2.339
17821SOL    HW157257   6.548   1.528   2.287
17821SOL    HW257258   6.590   1.476   2.437
17822SOL     OW57259   5.937   1.801   2.715
17822SOL    HW157260   5.987   1.715   2.721
17822SOL    HW257261   6.002   1.878   2.712
17823SOL     OW57262   7.381   1.066   2.735
17823SOL    HW157263   7.319   1.051   2.659
17823SOL    HW257264   7.329   1.077   2.820
17824SOL     OW57265   6.813   1.550   3.368
17824SOL    HW157266   6.819   1.473   3.432
17824SOL    HW257267   6.761   1.524   3.288
17825SOL     OW57268   5.907   0.943   2.104
17825SOL    HW157269   5.989   0.982   2.062
17825SOL    HW257270   5.880   0.861   2.055
17826SOL     OW57271   7.044   0.735   2.590
17826SOL    HW157272   7.039   0.670   2.665
17826SOL    HW257273   7.124   0.794   2.603
17827SOL     OW57274   6.047   1.266   3.589
17827SOL    HW157275   5.997   1.267   3.503
17827SOL    HW257276   5.984   1.248   3.665
17828SOL     OW57277   6.697   1.776   2.099
17828SOL    HW157278   6.637   1.714   2.149
17828SOL    HW257279   6.728   1.732   2.014
17829SOL     OW57280   5.788   0.285   3.360
17829SOL    HW157281   5.708   0.345   3.347
17829SOL    HW257282   5.778   0.236   3.446
17830SOL     OW57283   7.218   1.377   1.943
17830SOL    HW157284   7.186   1.471   1.933
17830SOL    HW257285   7.142   1.314   1.931
17831SOL     OW57286   6.050   1.743   2.185
17831SOL    HW157287   6.083   1.782   2.271
17831SOL    HW257288   6.126   1.736   2.120
17832SOL     OW57289   6.986   0.107   2.288
17832SOL    HW157290   6.962   0.070   2.198
17832SOL    HW257291   7.085   0.123   2.292
17833SOL     OW57292   5.835   1.785   3.103
17833SOL    HW157293   5.892   1.720   3.153
17833SOL    HW257294   5.819   1.752   3.010
17834SOL     OW57295   6.526   1.698   2.766
17834SOL    HW157296   6.606   1.641   2.787
17834SOL    HW257297   6.477   1.658   2.689
17835SOL     OW57298   7.133   0.222   3.591
17835SOL    HW157299   7.128   0.259   3.683
17835SOL    HW257300   7.061   0.153   3.579
17836SOL     OW57301   6.200   0.122   1.979
17836SOL    HW157302   6.298   0.100   1.986
17836SOL    HW257303   6.169   0.105   1.886
17837SOL     OW57304   6.367   0.264   3.611
17837SOL    HW157305   6.434   0.203   3.654
17837SOL    HW257306   6.294   0.283   3.676
17838SOL     OW57307   6.474   1.514   3.057
17838SOL    HW157308   6.451   1.489   2.963
17838SOL    HW257309   6.535   1.445   3.096
17839SOL     OW57310   6.937   0.590   3.295
17839SOL    HW157311   6.965   0.547   3.380
17839SOL    HW257312   6.962   0.686   3.296
17840SOL     OW57313   6.389   1.402   2.786
17840SOL    HW157314   6.479   1.416   2.744
17840SOL    HW257315   6.318   1.404   2.715
17841SOL     OW57316   6.508   0.503   2.761
17841SOL    HW157317   6.483   0.494   2.665
17841SOL    HW257318   6.556   0.421   2.792
17842SOL     OW57319   6.125   0.064   2.374
17842SOL    HW157320   6.044   0.065   2.432
17842SOL    HW257321   6.128   0.147   2.319
17843SOL     OW57322   7.020   1.188   1.903
17843SOL    HW157323   7.052   1.112   1.960
17843SOL    HW257324   6.928   1.215   1.933
17844SOL     OW57325   5.883   0.035   2.033
17844SOL    HW157326   5.932   0.119   2.012
17844SOL    HW257327   5.945  -0.030   2.078
17845SOL     OW57328   6.521   0.236   2.342
17845SOL    HW157329   6.473   0.277   2.264
17845SOL    HW257330   6.620   0.234   2.323
17846SOL     OW57331   6.662   0.683   3.326
17846SOL    HW157332   6.582   0.622   3.329
17846SOL    HW257333   6.743   0.630   3.302
17847SOL     OW57334   6.813   1.570   2.655
17847SOL    HW157335   6.834   1.644   2.590
17847SOL    HW257336   6.881   1.570   2.728
17848SOL     OW57337   6.045   1.152   2.603
17848SOL    HW157338   5.974   1.125   2.668
17848SOL    HW257339   6.019   1.124   2.510
17849SOL     OW57340   6.857   1.797   2.453
17849SOL    HW157341   6.901   1.861   2.389
17849SOL    HW257342   6.807   1.849   2.523
17850SOL     OW57343   6.618   0.549   1.878
17850SOL    HW157344   6.577   0.631   1.839
17850SOL    HW257345   6.682   0.575   1.951
17851SOL     OW57346   5.664   0.556   3.248
17851SOL    HW157347   5.756   0.555   3.207
17851SOL    HW257348   5.658   0.630   3.315
17852SOL     OW57349   6.147   0.222   3.009
17852SOL    HW157350   6.185   0.138   3.046
17852SOL    HW257351   6.059   0.241   3.053
17853SOL     OW57352   6.452   0.454   2.504
17853SOL    HW157353   6.420   0.526   2.442
17853SOL    HW257354   6.476   0.373   2.451
17854SOL     OW57355   7.015   1.173   2.729
17854SOL    HW157356   6.960   1.089   2.722
17854SOL    HW257357   7.041   1.202   2.637
17855SOL     OW57358   7.052   0.590   2.854
17855SOL    HW157359   7.022   0.495   2.861
17855SOL    HW257360   7.125   0.606   2.920
17856SOL     OW57361   7.443   0.833   2.239
17856SOL    HW157362   7.485   0.769   2.303
17856SOL    HW257363   7.405   0.782   2.161
17857SOL     OW57364   6.074   1.385   2.036
17857SOL    HW157365   5.987   1.370   2.083
17857SOL    HW257366   6.057   1.411   1.941
17858SOL     OW57367   7.250   1.280   2.519
17858SOL    HW157368   7.349   1.288   2.533
17858SOL    HW257369   7.205   1.364   2.550
17859SOL     OW57370   6.976   0.575   1.940
17859SOL    HW157371   6.922   0.554   2.021
17859SOL    HW257372   7.067   0.534   1.949
17860SOL     OW57373   6.113   0.256   2.190
17860SOL    HW157374   6.140   0.197   2.115
17860SOL    HW257375   6.113   0.351   2.159
17861SOL     OW57376   7.340   1.223   3.450
17861SOL    HW157377   7.431   1.184   3.437
17861SOL    HW257378   7.348   1.319   3.474
17862SOL     OW57379   6.650   1.347   3.202
17862SOL    HW157380   6.570   1.324   3.257
17862SOL    HW257381   6.733   1.321   3.251
17863SOL     OW57382   7.178   1.629   3.487
17863SOL    HW157383   7.205   1.663   3.397
17863SOL    HW257384   7.257   1.591   3.533
17864SOL     OW57385   6.697   1.195   2.962
17864SOL    HW157386   6.657   1.239   3.043
17864SOL    HW257387   6.656   1.232   2.879
17865SOL     OW57388   7.224   1.099   2.941
17865SOL    HW157389   7.229   1.180   3.000
17865SOL    HW257390   7.138   1.101   2.890
17866SOL     OW57391   6.566   1.116   3.581
17866SOL    HW157392   6.467   1.122   3.591
17866SOL    HW257393   6.589   1.036   3.525
17867SOL     OW57394   6.291   1.050   2.230
17867SOL    HW157395   6.277   1.057   2.329
17867SOL    HW257396   6.375   0.999   2.212
17868SOL     OW57397   5.996   0.813   3.113
17868SOL    HW157398   6.082   0.825   3.163
17868SOL    HW257399   5.954   0.726   3.140
17869SOL     OW57400   5.650   1.564   3.193
17869SOL    HW157401   5.604   1.646   3.159
17869SOL    HW257402   5.748   1.583   3.202
17870SOL     OW57403   5.953   1.100   2.363
17870SOL    HW157404   5.946   1.183   2.307
17870SOL    HW257405   5.957   1.020   2.303
17871SOL     OW57406   6.152   0.537   2.727
17871SOL    HW157407   6.164   0.603   2.653
17871SOL    HW257408   6.198   0.571   2.810
17872SOL     OW57409   6.838   1.348   2.250
17872SOL    HW157410   6.888   1.425   2.290
17872SOL    HW257411   6.743   1.350   2.282
17873SOL     OW57412   6.858   1.445   3.004
17873SOL    HW157413   6.905   1.458   3.091
17873SOL    HW257414   6.792   1.371   3.013
17874SOL     OW57415   7.168   0.639   2.334
17874SOL    HW157416   7.137   0.700   2.407
17874SOL    HW257417   7.218   0.691   2.265
17875SOL     OW57418   5.940   1.510   3.191
17875SOL    HW157419   5.919   1.466   3.104
17875SOL    HW257420   6.037   1.536   3.194
17876SOL     OW57421   5.988   0.751   3.460
17876SOL    HW157422   6.056   0.806   3.413
17876SOL    HW257423   6.028   0.663   3.487
17877SOL     OW57424   7.173   0.779   3.532
17877SOL    HW157425   7.081   0.817   3.527
17877SOL    HW257426   7.233   0.826   3.467
17878SOL     OW57427   6.599   0.105   3.632
17878SOL    HW157428   6.605   0.190   3.580
17878SOL    HW257429   6.631   0.029   3.575
17879SOL     OW57430   6.090   0.050   3.602
17879SOL    HW157431   6.048  -0.007   3.532
17879SOL    HW257432   6.024   0.119   3.634
17880SOL     OW57433   6.159   0.870   2.891
17880SOL    HW157434   6.203   0.959   2.882
17880SOL    HW257435   6.096   0.870   2.968
17881SOL     OW57436   6.946   0.862   2.907
17881SOL    HW157437   6.871   0.862   2.841
17881SOL    HW257438   6.983   0.770   2.916
17882SOL     OW57439   6.795   0.525   2.137
17882SOL    HW157440   6.808   0.441   2.191
17882SOL    HW257441   6.766   0.599   2.197
17883SOL     OW57442   5.893   0.213   3.093
17883SOL    HW157443   5.870   0.250   3.183
17883SOL    HW257444   5.863   0.118   3.087
17884SOL     OW57445   5.623   1.310   3.144
17884SOL    HW157446   5.676   1.261   3.212
17884SOL    HW257447   5.645   1.408   3.149
17885SOL     OW57448   6.318   0.634   2.926
17885SOL    HW157449   6.377   0.608   2.850
17885SOL    HW257450   6.290   0.730   2.915
17886SOL     OW57451   7.314   0.935   3.716
17886SOL    HW157452   7.268   0.928   3.627
17886SOL    HW257453   7.252   0.979   3.782
17887SOL     OW57454   7.208   0.367   2.236
17887SOL    HW157455   7.210   0.291   2.300
17887SOL    HW257456   7.160   0.444   2.276
17888SOL     OW57457   6.609   0.766   2.828
17888SOL    HW157458   6.624   0.787   2.924
17888SOL    HW257459   6.579   0.671   2.819
17889SOL     OW57460   6.566   1.573   3.562
17889SOL    HW157461   6.546   1.617   3.474
17889SOL    HW257462   6.605   1.482   3.546
17890SOL     OW57463   7.445   1.518   3.467
17890SOL    HW157464   7.459   1.545   3.372
17890SOL    HW257465   7.528   1.540   3.520
17891SOL     OW57466   5.936   0.898   3.666
17891SOL    HW157467   6.012   0.942   3.714
17891SOL    HW257468   5.971   0.851   3.584
17892SOL     OW57469   7.126   0.274   1.987
17892SOL    HW157470   7.065   0.199   2.010
17892SOL    HW257471   7.148   0.326   2.070
17893SOL     OW57472   6.889   0.838   1.904
17893SOL    HW157473   6.923   0.745   1.919
17893SOL    HW257474   6.907   0.865   1.809
17894SOL     OW57475   6.654   1.333   2.711
17894SOL    HW157476   6.661   1.249   2.656
17894SOL    HW257477   6.716   1.402   2.675
17895SOL     OW57478   5.905   0.810   2.811
17895SOL    HW157479   5.998   0.846   2.816
17895SOL    HW257480   5.899   0.725   2.863
17896SOL     OW57481   6.724   0.380   3.540
17896SOL    HW157482   6.679   0.443   3.604
17896SOL    HW257483   6.817   0.411   3.523
17897SOL     OW57484   5.594   1.326   2.062
17897SOL    HW157485   5.501   1.347   2.031
17897SOL    HW257486   5.604   1.227   2.075
17898SOL     OW57487   5.674   1.801   2.789
17898SOL    HW157488   5.632   1.715   2.762
17898SOL    HW257489   5.768   1.804   2.755
17899SOL     OW57490   6.090   1.568   2.772
17899SOL    HW157491   6.156   1.642   2.781
17899SOL    HW257492   6.134   1.489   2.730
17900SOL     OW57493   6.588   0.796   3.100
17900SOL    HW157494   6.629   0.764   3.186
17900SOL    HW257495   6.492   0.769   3.097
17901SOL     OW57496   5.626   0.544   2.976
17901SOL    HW157497   5.711   0.511   2.935
17901SOL    HW257498   5.639   0.559   3.074
17902SOL     OW57499   5.775   0.520   3.584
17902SOL    HW157500   5.834   0.480   3.514
17902SOL    HW257501   5.717   0.591   3.543
17903SOL     OW57502   6.955   0.950   3.522
17903SOL    HW157503   6.994   1.039   3.542
17903SOL    HW257504   6.965   0.930   3.425
17904SOL     OW57505   6.401   0.572   2.187
17904SOL    HW157506   6.408   0.483   2.141
17904SOL    HW257507   6.307   0.606   2.179
17905SOL     OW57508   7.243   0.604   3.068
17905SOL    HW157509   7.205   0.535   3.130
17905SOL    HW257510   7.325   0.568   3.024
17906SOL     OW57511   5.838   1.564   3.606
17906SOL    HW157512   5.808   1.621   3.682
17906SOL    HW257513   5.831   1.467   3.632
17907SOL     OW57514   6.257   0.464   3.131
17907SOL    HW157515   6.223   0.375   3.101
17907SOL    HW257516   6.283   0.518   3.051
17908SOL     OW57517   6.516   1.678   3.327
17908SOL    HW157518   6.492   1.660   3.232
17908SOL    HW257519   6.546   1.772   3.337
17909SOL     OW57520   6.059   0.500   2.053
17909SOL    HW157521   6.120   0.580   2.057
17909SOL    HW257522   5.964   0.531   2.060
17910SOL     OW57523   5.745   1.137   3.328
17910SOL    HW157524   5.767   1.076   3.404
17910SOL    HW257525   5.755   1.088   3.242
17911SOL     OW57526   6.933   1.059   3.096
17911SOL    HW157527   6.957   0.996   3.022
17911SOL    HW257528   6.843   1.099   3.078
17912SOL     OW57529   6.888   0.855   2.171
17912SOL    HW157530   6.802   0.824   2.213
17912SOL    HW257531   6.884   0.841   2.072
17913SOL     OW57532   7.345   1.747   3.016
17913SOL    HW157533   7.406   1.777   2.943
17913SOL    HW257534   7.307   1.658   2.994
17914SOL     OW57535   6.838   1.731   2.990
17914SOL    HW157536   6.922   1.736   2.936
17914SOL    HW257537   6.815   1.635   3.008
17915SOL     OW57538   5.669   1.258   2.884
17915SOL    HW157539   5.664   1.257   2.984
17915SOL    HW257540   5.586   1.217   2.846
17916SOL     OW57541   6.274   1.662   3.578
17916SOL    HW157542   6.218   1.743   3.587
17916SOL    HW257543   6.326   1.666   3.492
17917SOL     OW57544   7.312   0.135   2.385
17917SOL    HW157545   7.385   0.118   2.318
17917SOL    HW257546   7.281   0.048   2.423
17918SOL     OW57547   6.974   1.573   2.339
17918SOL    HW157548   7.041   1.585   2.265
17918SOL    HW257549   6.934   1.662   2.362
17919SOL     OW57550   5.716   1.794   3.713
17919SOL    HW157551   5.675   1.720   3.766
17919SOL    HW257552   5.780   1.845   3.771
17920SOL     OW57553   6.866   0.927   2.534
17920SOL    HW157554   6.926   0.846   2.536
17920SOL    HW257555   6.906   0.996   2.474
17921SOL     OW57556   6.416   1.273   3.284
17921SOL    HW157557   6.411   1.306   3.379
17921SOL    HW257558   6.330   1.292   3.238
17922SOL     OW57559   6.258   1.616   2.016
17922SOL    HW157560   6.267   1.626   1.917
17922SOL    HW257561   6.218   1.527   2.037
17923SOL     OW57562   7.236   1.720   3.256
17923SOL    HW157563   7.289   1.730   3.172
17923SOL    HW257564   7.209   1.810   3.290
17924SOL     OW57565   7.427   0.175   2.825
17924SOL    HW157566   7.466   0.090   2.789
17924SOL    HW257567   7.329   0.177   2.806
17925SOL     OW57568   6.780   1.612   1.893
17925SOL    HW157569   6.786   1.519   1.930
17925SOL    HW257570   6.721   1.612   1.813
17926SOL     OW57571   6.408   1.002   3.234
17926SOL    HW157572   6.448   1.001   3.142
17926SOL    HW257573   6.418   1.094   3.274
17927SOL     OW57574   6.502   0.910   2.153
17927SOL    HW157575   6.565   0.948   2.085
17927SOL    HW257576   6.542   0.827   2.192
17928SOL     OW57577   7.090   1.607   1.906
17928SOL    HW157578   6.998   1.644   1.913
17928SOL    HW257579   7.128   1.627   1.816
17929SOL     OW57580   5.958   1.288   3.352
17929SOL    HW157581   5.945   1.381   3.318
17929SOL    HW257582   5.874   1.236   3.339
17930SOL     OW57583   7.200   1.292   3.151
17930SOL    HW157584   7.260   1.295   3.231
17930SOL    HW257585   7.125   1.356   3.164
17931SOL     OW57586   6.625   1.098   2.558
17931SOL    HW157587   6.555   1.051   2.612
17931SOL    HW257588   6.684   1.030   2.515
17932SOL     OW57589   6.176   1.487   2.353
17932SOL    HW157590   6.218   1.429   2.283
17932SOL    HW257591   6.132   1.566   2.309
17933SOL     OW57592   7.295   0.385   3.243
17933SOL    HW157593   7.368   0.454   3.247
17933SOL    HW257594   7.323   0.310   3.184
17934SOL     OW57595   5.841   1.348   2.152
17934SOL    HW157596   5.745   1.349   2.125
17934SOL    HW257597   5.853   1.401   2.236
17935SOL     OW57598   5.691   1.013   3.588
17935SOL    HW157599   5.614   0.980   3.642
17935SOL    HW257600   5.776   0.983   3.630
17936SOL     OW57601   6.258   0.203   3.351
17936SOL    HW157602   6.348   0.187   3.311
17936SOL    HW257603   6.266   0.208   3.450
17937SOL     OW57604   5.661   0.345   1.895
17937SOL    HW157605   5.569   0.317   1.866
17937SOL    HW257606   5.692   0.422   1.839
17938SOL     OW57607   7.026   0.856   3.260
17938SOL    HW157608   6.969   0.908   3.197
17938SOL    HW257609   7.122   0.868   3.236
17939SOL     OW57610   5.658   0.166   2.180
17939SOL    HW157611   5.641   0.249   2.126
17939SOL    HW257612   5.748   0.129   2.158
17940SOL     OW57613   6.769   1.335   1.981
17940SOL    HW157614   6.670   1.324   1.983
17940SOL    HW257615   6.803   1.350   2.074
17941SOL     OW57616   6.199   0.842   3.293
17941SOL    HW157617   6.255   0.923   3.276
17941SOL    HW257618   6.258   0.762   3.296
17942SOL     OW57619   7.079   1.767   2.821
17942SOL    HW157620   7.112   1.831   2.752
17942SOL    HW257621   7.145   1.761   2.896
17943SOL     OW57622   6.302   0.565   3.570
17943SOL    HW157623   6.321   0.630   3.644
17943SOL    HW257624   6.362   0.485   3.579
17944SOL     OW57625   7.036   1.220   3.495
17944SOL    HW157626   7.027   1.210   3.594
17944SOL    HW257627   7.132   1.213   3.469
17945SOL     OW57628   5.976   1.741   3.422
17945SOL    HW157629   5.885   1.782   3.420
17945SOL    HW257630   5.969   1.647   3.454
17946SOL     OW57631   7.260   0.883   3.116
17946SOL    HW157632   7.233   0.794   3.079
17946SOL    HW257633   7.261   0.951   3.043
17947SOL     OW57634   6.811   0.325   2.311
17947SOL    HW157635   6.876   0.251   2.300
17947SOL    HW257636   6.831   0.375   2.395
17948SOL     OW57637   7.363   0.342   3.504
17948SOL    HW157638   7.346   0.373   3.410
17948SOL    HW257639   7.279   0.305   3.542
17949SOL     OW57640   7.316   0.934   3.379
17949SOL    HW157641   7.354   1.025   3.394
17949SOL    HW257642   7.308   0.917   3.280
17950SOL     OW57643   6.445   1.374   1.878
17950SOL    HW157644   6.399   1.389   1.966
17950SOL    HW257645   6.489   1.459   1.848
17951SOL     OW57646   6.247   1.790   2.815
17951SOL    HW157647   6.201   1.878   2.802
17951SOL    HW257648   6.346   1.802   2.808
17952SOL     OW57649   6.445   0.956   2.723
17952SOL    HW157650   6.499   0.887   2.771
17952SOL    HW257651   6.413   1.025   2.789
17953SOL     OW57652   6.669   0.984   1.949
17953SOL    HW157653   6.646   1.037   1.867
17953SOL    HW257654   6.750   0.928   1.930
17954SOL     OW57655   7.447   1.569   2.713
17954SOL    HW157656   7.376   1.557   2.643
17954SOL    HW257657   7.448   1.490   2.773
17955SOL     OW57658   5.807   1.314   3.706
17955SOL    HW157659   5.742   1.241   3.685
17955SOL    HW257660   5.811   1.328   3.804
17956SOL     OW57661   5.665   1.240   2.515
17956SOL    HW157662   5.664   1.193   2.603
17956SOL    HW257663   5.747   1.212   2.464
17957SOL     OW57664   6.258   1.391   3.486
17957SOL    HW157665   6.180   1.341   3.524
17957SOL    HW257666   6.255   1.486   3.517
17958SOL     OW57667   7.410   0.192   3.089
17958SOL    HW157668   7.406   0.102   3.133
17958SOL    HW257669   7.413   0.181   2.990
17959SOL     OW57670   7.291   1.487   2.966
17959SOL    HW157671   7.198   1.462   2.939
17959SOL    HW257672   7.317   1.437   3.048
17960SOL     OW57673   5.903   0.547   3.142
17960SOL    HW157674   5.941   0.488   3.214
17960SOL    HW257675   5.943   0.521   3.054
17961SOL     OW57676   6.398   1.586   2.549
17961SOL    HW157677   6.430   1.596   2.455
17961SOL    HW257678   6.319   1.524   2.551
17962SOL     OW57679   7.010   0.214   2.974
17962SOL    HW157680   7.062   0.149   3.029
17962SOL    HW257681   6.961   0.277   3.035
17963SOL     OW57682   6.356   1.330   2.163
17963SOL    HW157683   6.310   1.243   2.180
17963SOL    HW257684   6.447   1.327   2.204
17964SOL     OW57685   6.204   1.567   3.146
17964SOL    HW157686   6.199   1.649   3.203
17964SOL    HW257687   6.293   1.564   3.101
17965SOL     OW57688   6.938   0.052   2.030
17965SOL    HW157689   6.973   0.011   1.946
17965SOL    HW257690   6.848   0.014   2.050
17966SOL     OW57691   6.886   0.453   2.553
17966SOL    HW157692   6.827   0.533   2.557
17966SOL    HW257693   6.901   0.418   2.646
17967SOL     OW57694   7.179   0.221   2.744
17967SOL    HW157695   7.095   0.220   2.798
17967SOL    HW257696   7.181   0.304   2.688
17968SOL     OW57697   5.625   1.077   2.162
17968SOL    HW157698   5.724   1.066   2.153
17968SOL    HW257699   5.585   0.991   2.194
17969SOL     OW57700   6.461   1.646   2.199
17969SOL    HW157701   6.384   1.611   2.145
17969SOL    HW257702   6.429   1.717   2.261
17970SOL     OW57703   5.816   0.628   3.837
17970SOL    HW157704   5.723   0.626   3.874
17970SOL    HW257705   5.817   0.589   3.745
17971SOL     OW57706   5.811   0.275   4.720
17971SOL    HW157707   5.846   0.258   4.812
17971SOL    HW257708   5.723   0.230   4.708
17972SOL     OW57709   5.605   0.368   4.371
17972SOL    HW157710   5.523   0.411   4.410
17972SOL    HW257711   5.577   0.295   4.308
17973SOL     OW57712   6.155   1.275   4.889
17973SOL    HW157713   6.062   1.268   4.852
17973SOL    HW257714   6.166   1.364   4.933
17974SOL     OW57715   6.721   0.703   4.441
17974SOL    HW157716   6.778   0.781   4.416
17974SOL    HW257717   6.661   0.729   4.517
17975SOL     OW57718   7.341   0.607   3.955
17975SOL    HW157719   7.329   0.594   3.856
17975SOL    HW257720   7.311   0.526   4.004
17976SOL     OW57721   6.354   1.144   4.747
17976SOL    HW157722   6.276   1.161   4.807
17976SOL    HW257723   6.388   1.231   4.711
17977SOL     OW57724   6.271   1.012   4.389
17977SOL    HW157725   6.340   0.996   4.459
17977SOL    HW257726   6.198   1.069   4.427
17978SOL     OW57727   6.272   1.161   5.527
17978SOL    HW157728   6.332   1.240   5.541
17978SOL    HW257729   6.186   1.192   5.486
17979SOL     OW57730   5.921   1.435   4.785
17979SOL    HW157731   5.843   1.404   4.732
17979SOL    HW257732   5.979   1.493   4.728
17980SOL     OW57733   7.046   1.505   5.063
17980SOL    HW157734   7.070   1.599   5.089
17980SOL    HW257735   7.030   1.451   5.145
17981SOL     OW57736   6.024   0.392   5.223
17981SOL    HW157737   6.106   0.336   5.232
17981SOL    HW257738   5.943   0.334   5.227
17982SOL     OW57739   7.189   0.447   4.461
17982SOL    HW157740   7.115   0.493   4.411
17982SOL    HW257741   7.240   0.515   4.514
17983SOL     OW57742   5.817   1.713   4.207
17983SOL    HW157743   5.851   1.790   4.261
17983SOL    HW257744   5.861   1.713   4.117
17984SOL     OW57745   6.713   1.341   5.414
17984SOL    HW157746   6.760   1.341   5.502
17984SOL    HW257747   6.665   1.254   5.403
17985SOL     OW57748   5.816   1.434   4.262
17985SOL    HW157749   5.790   1.530   4.262
17985SOL    HW257750   5.745   1.380   4.307
17986SOL     OW57751   5.826   1.091   4.610
17986SOL    HW157752   5.840   1.007   4.662
17986SOL    HW257753   5.771   1.155   4.665
17987SOL     OW57754   6.206   1.786   5.163
17987SOL    HW157755   6.114   1.769   5.198
17987SOL    HW257756   6.234   1.878   5.189
17988SOL     OW57757   6.192   0.964   3.847
17988SOL    HW157758   6.199   1.048   3.793
17988SOL    HW257759   6.238   0.977   3.935
17989SOL     OW57760   7.180   0.114   5.204
17989SOL    HW157761   7.162   0.181   5.132
17989SOL    HW257762   7.177   0.160   5.293
17990SOL     OW57763   5.708   0.643   4.287
17990SOL    HW157764   5.663   0.555   4.304
17990SOL    HW257765   5.707   0.697   4.371
17991SOL     OW57766   7.428   1.767   4.083
17991SOL    HW157767   7.482   1.738   4.163
17991SOL    HW257768   7.458   1.857   4.054
17992SOL     OW57769   5.613   1.596   3.841
17992SOL    HW157770   5.594   1.500   3.862
17992SOL    HW257771   5.580   1.654   3.916
17993SOL     OW57772   7.275   0.922   4.336
17993SOL    HW157773   7.370   0.893   4.344
17993SOL    HW257774   7.267   0.987   4.261
17994SOL     OW57775   7.227   1.108   4.156
17994SOL    HW157776   7.313   1.110   4.104
17994SOL    HW257777   7.241   1.155   4.244
17995SOL     OW57778   5.699   0.737   5.321
17995SOL    HW157779   5.787   0.724   5.366
17995SOL    HW257780   5.686   0.834   5.299
17996SOL     OW57781   6.199   1.365   4.450
17996SOL    HW157782   6.150   1.278   4.459
17996SOL    HW257783   6.176   1.408   4.363
17997SOL     OW57784   6.879   1.228   5.147
17997SOL    HW157785   6.916   1.155   5.089
17997SOL    HW257786   6.931   1.233   5.232
17998SOL     OW57787   6.395   0.004   4.226
17998SOL    HW157788   6.435   0.095   4.217
17998SOL    HW257789   6.295   0.012   4.232
17999SOL     OW57790   5.783   0.976   4.988
17999SOL    HW157791   5.872   0.931   4.974
17999SOL    HW257792   5.710   0.911   4.969
18000SOL     OW57793   7.111   0.999   3.914
18000SOL    HW157794   7.048   0.923   3.927
18000SOL    HW257795   7.159   1.017   4.000
18001SOL     OW57796   6.773   1.792   5.340
18001SOL    HW157797   6.797   1.852   5.264
18001SOL    HW257798   6.780   1.697   5.310
18002SOL     OW57799   5.903   0.251   5.525
18002SOL    HW157800   5.974   0.322   5.531
18002SOL    HW257801   5.815   0.290   5.553
18003SOL     OW57802   7.253   1.714   4.296
18003SOL    HW157803   7.212   1.691   4.208
18003SOL    HW257804   7.235   1.640   4.361
18004SOL     OW57805   6.184   0.729   3.994
18004SOL    HW157806   6.208   0.798   3.926
18004SOL    HW257807   6.106   0.762   4.048
18005SOL     OW57808   6.867   0.345   4.668
18005SOL    HW157809   6.781   0.295   4.655
18005SOL    HW257810   6.929   0.291   4.724
18006SOL     OW57811   7.162   1.662   4.031
18006SOL    HW157812   7.251   1.708   4.034
18006SOL    HW257813   7.141   1.638   3.936
18007SOL     OW57814   6.980   0.469   5.398
18007SOL    HW157815   6.960   0.512   5.486
18007SOL    HW257816   7.058   0.407   5.407
18008SOL     OW57817   6.559   0.890   5.296
18008SOL    HW157818   6.605   0.806   5.267
18008SOL    HW257819   6.503   0.924   5.221
18009SOL     OW57820   6.577   0.410   4.966
18009SOL    HW157821   6.500   0.444   5.020
18009SOL    HW257822   6.543   0.359   4.887
18010SOL     OW57823   6.627   0.701   4.153
18010SOL    HW157824   6.653   0.697   4.249
18010SOL    HW257825   6.542   0.650   4.139
18011SOL     OW57826   5.662   0.811   4.513
18011SOL    HW157827   5.761   0.799   4.522
18011SOL    HW257828   5.638   0.906   4.534
18012SOL     OW57829   5.716   1.821   5.295
18012SOL    HW157830   5.706   1.806   5.394
18012SOL    HW257831   5.630   1.857   5.259
18013SOL     OW57832   6.451   0.348   3.919
18013SOL    HW157833   6.510   0.411   3.870
18013SOL    HW257834   6.470   0.254   3.890
18014SOL     OW57835   7.305   0.585   5.555
18014SOL    HW157836   7.279   0.674   5.519
18014SOL    HW257837   7.303   0.517   5.482
18015SOL     OW57838   6.948   1.144   4.269
18015SOL    HW157839   7.031   1.115   4.221
18015SOL    HW257840   6.899   1.211   4.213
18016SOL     OW57841   6.136   0.196   4.609
18016SOL    HW157842   6.131   0.191   4.709
18016SOL    HW257843   6.138   0.292   4.580
18017SOL     OW57844   5.937   1.801   4.577
18017SOL    HW157845   5.987   1.715   4.583
18017SOL    HW257846   6.002   1.878   4.574
18018SOL     OW57847   7.381   1.066   4.597
18018SOL    HW157848   7.319   1.051   4.521
18018SOL    HW257849   7.329   1.077   4.682
18019SOL     OW57850   6.813   1.550   5.230
18019SOL    HW157851   6.819   1.473   5.294
18019SOL    HW257852   6.761   1.524   5.150
18020SOL     OW57853   5.907   0.943   3.966
18020SOL    HW157854   5.989   0.982   3.924
18020SOL    HW257855   5.880   0.861   3.917
18021SOL     OW57856   7.044   0.735   4.452
18021SOL    HW157857   7.039   0.670   4.527
18021SOL    HW257858   7.124   0.794   4.465
18022SOL     OW57859   6.047   1.266   5.451
18022SOL    HW157860   5.997   1.267   5.365
18022SOL    HW257861   5.984   1.248   5.527
18023SOL     OW57862   5.788   0.285   5.222
18023SOL    HW157863   5.708   0.345   5.209
18023SOL    HW257864   5.778   0.236   5.308
18024SOL     OW57865   7.218   1.377   3.805
18024SOL    HW157866   7.186   1.471   3.795
18024SOL    HW257867   7.142   1.314   3.793
18025SOL     OW57868   6.050   1.743   4.047
18025SOL    HW157869   6.083   1.782   4.133
18025SOL    HW257870   6.126   1.736   3.982
18026SOL     OW57871   6.986   0.107   4.150
18026SOL    HW157872   6.962   0.070   4.060
18026SOL    HW257873   7.085   0.123   4.154
18027SOL     OW57874   5.835   1.785   4.965
18027SOL    HW157875   5.892   1.720   5.015
18027SOL    HW257876   5.819   1.752   4.872
18028SOL     OW57877   6.526   1.698   4.628
18028SOL    HW157878   6.606   1.641   4.649
18028SOL    HW257879   6.477   1.658   4.551
18029SOL     OW57880   5.968   0.700   4.204
18029SOL    HW157881   6.013   0.610   4.201
18029SOL    HW257882   5.874   0.689   4.237
18030SOL     OW57883   7.133   0.222   5.453
18030SOL    HW157884   7.128   0.259   5.545
18030SOL    HW257885   7.061   0.153   5.441
18031SOL     OW57886   6.200   0.122   3.841
18031SOL    HW157887   6.298   0.100   3.848
18031SOL    HW257888   6.169   0.105   3.748
18032SOL     OW57889   6.367   0.264   5.473
18032SOL    HW157890   6.434   0.203   5.516
18032SOL    HW257891   6.294   0.283   5.538
18033SOL     OW57892   6.474   1.514   4.919
18033SOL    HW157893   6.451   1.489   4.825
18033SOL    HW257894   6.535   1.445   4.958
18034SOL     OW57895   6.937   0.590   5.157
18034SOL    HW157896   6.965   0.547   5.242
18034SOL    HW257897   6.962   0.686   5.158
18035SOL     OW57898   6.389   1.402   4.648
18035SOL    HW157899   6.479   1.416   4.606
18035SOL    HW257900   6.318   1.404   4.577
18036SOL     OW57901   6.508   0.503   4.623
18036SOL    HW157902   6.483   0.494   4.527
18036SOL    HW257903   6.556   0.421   4.654
18037SOL     OW57904   6.125   0.064   4.236
18037SOL    HW157905   6.044   0.065   4.294
18037SOL    HW257906   6.128   0.147   4.181
18038SOL     OW57907   5.883   0.035   3.895
18038SOL    HW157908   5.932   0.119   3.874
18038SOL    HW257909   5.945  -0.030   3.940
18039SOL     OW57910   6.521   0.236   4.204
18039SOL    HW157911   6.473   0.277   4.126
18039SOL    HW257912   6.620   0.234   4.185
18040SOL     OW57913   6.662   0.683   5.188
18040SOL    HW157914   6.582   0.622   5.191
18040SOL    HW257915   6.743   0.630   5.164
18041SOL     OW57916   6.813   1.570   4.517
18041SOL    HW157917   6.834   1.644   4.452
18041SOL    HW257918   6.881   1.570   4.590
18042SOL     OW57919   6.045   1.152   4.465
18042SOL    HW157920   5.974   1.125   4.530
18042SOL    HW257921   6.019   1.124   4.372
18043SOL     OW57922   6.857   1.797   4.315
18043SOL    HW157923   6.901   1.861   4.251
18043SOL    HW257924   6.807   1.849   4.385
18044SOL     OW57925   6.618   0.549   3.740
18044SOL    HW157926   6.577   0.631   3.701
18044SOL    HW257927   6.682   0.575   3.813
18045SOL     OW57928   5.664   0.556   5.110
18045SOL    HW157929   5.756   0.555   5.069
18045SOL    HW257930   5.658   0.630   5.177
18046SOL     OW57931   6.147   0.222   4.871
18046SOL    HW157932   6.185   0.138   4.908
18046SOL    HW257933   6.059   0.241   4.915
18047SOL     OW57934   6.452   0.454   4.366
18047SOL    HW157935   6.420   0.526   4.304
18047SOL    HW257936   6.476   0.373   4.313
18048SOL     OW57937   6.603   0.039   4.477
18048SOL    HW157938   6.531   0.044   4.408
18048SOL    HW257939   6.579  -0.030   4.546
18049SOL     OW57940   7.015   1.173   4.591
18049SOL    HW157941   6.960   1.089   4.584
18049SOL    HW257942   7.041   1.202   4.499
18050SOL     OW57943   7.052   0.590   4.716
18050SOL    HW157944   7.022   0.495   4.723
18050SOL    HW257945   7.125   0.606   4.782
18051SOL     OW57946   7.443   0.833   4.101
18051SOL    HW157947   7.485   0.769   4.165
18051SOL    HW257948   7.405   0.782   4.023
18052SOL     OW57949   6.074   1.385   3.898
18052SOL    HW157950   5.987   1.370   3.945
18052SOL    HW257951   6.057   1.411   3.803
18053SOL     OW57952   6.976   0.575   3.802
18053SOL    HW157953   6.922   0.554   3.883
18053SOL    HW257954   7.067   0.534   3.811
18054SOL     OW57955   6.113   0.256   4.052
18054SOL    HW157956   6.140   0.197   3.977
18054SOL    HW257957   6.113   0.351   4.021
18055SOL     OW57958   7.340   1.223   5.312
18055SOL    HW157959   7.431   1.184   5.299
18055SOL    HW257960   7.348   1.319   5.336
18056SOL     OW57961   6.650   1.347   5.064
18056SOL    HW157962   6.570   1.324   5.119
18056SOL    HW257963   6.733   1.321   5.113
18057SOL     OW57964   7.178   1.629   5.349
18057SOL    HW157965   7.205   1.663   5.259
18057SOL    HW257966   7.257   1.591   5.395
18058SOL     OW57967   6.697   1.195   4.824
18058SOL    HW157968   6.657   1.239   4.905
18058SOL    HW257969   6.656   1.232   4.741
18059SOL     OW57970   6.501   0.089   5.126
18059SOL    HW157971   6.526   0.069   5.031
18059SOL    HW257972   6.573   0.145   5.168
18060SOL     OW57973   6.566   1.116   5.443
18060SOL    HW157974   6.467   1.122   5.453
18060SOL    HW257975   6.589   1.036   5.387
18061SOL     OW57976   6.291   1.050   4.092
18061SOL    HW157977   6.277   1.057   4.191
18061SOL    HW257978   6.375   0.999   4.074
18062SOL     OW57979   5.996   0.813   4.975
18062SOL    HW157980   6.082   0.825   5.025
18062SOL    HW257981   5.954   0.726   5.002
18063SOL     OW57982   6.860   0.386   4.986
18063SOL    HW157983   6.881   0.460   5.050
18063SOL    HW257984   6.771   0.403   4.943
18064SOL     OW57985   5.650   1.564   5.055
18064SOL    HW157986   5.604   1.646   5.021
18064SOL    HW257987   5.748   1.583   5.064
18065SOL     OW57988   5.953   1.100   4.225
18065SOL    HW157989   5.946   1.183   4.169
18065SOL    HW257990   5.957   1.020   4.165
18066SOL     OW57991   6.152   0.537   4.589
18066SOL    HW157992   6.164   0.603   4.515
18066SOL    HW257993   6.198   0.571   4.672
18067SOL     OW57994   6.858   1.445   4.866
18067SOL    HW157995   6.905   1.458   4.953
18067SOL    HW257996   6.792   1.371   4.875
18068SOL     OW57997   7.168   0.639   4.196
18068SOL    HW157998   7.137   0.700   4.269
18068SOL    HW257999   7.218   0.691   4.127
18069SOL     OW58000   5.940   1.510   5.053
18069SOL    HW158001   5.919   1.466   4.966
18069SOL    HW258002   6.037   1.536   5.056
18070SOL     OW58003   5.988   0.751   5.322
18070SOL    HW158004   6.056   0.806   5.275
18070SOL    HW258005   6.028   0.663   5.349
18071SOL     OW58006   7.173   0.779   5.394
18071SOL    HW158007   7.081   0.817   5.389
18071SOL    HW258008   7.233   0.826   5.329
18072SOL     OW58009   6.599   0.105   5.494
18072SOL    HW158010   6.605   0.190   5.442
18072SOL    HW258011   6.631   0.029   5.437
18073SOL     OW58012   6.090   0.050   5.464
18073SOL    HW158013   6.048  -0.007   5.394
18073SOL    HW258014   6.024   0.119   5.496
18074SOL     OW58015   6.159   0.870   4.753
18074SOL    HW158016   6.203   0.959   4.744
18074SOL    HW258017   6.096   0.870   4.830
18075SOL     OW58018   6.946   0.862   4.769
18075SOL    HW158019   6.871   0.862   4.703
18075SOL    HW258020   6.983   0.770   4.778
18076SOL     OW58021   6.795   0.525   3.999
18076SOL    HW158022   6.808   0.441   4.053
18076SOL    HW258023   6.766   0.599   4.059
18077SOL     OW58024   5.893   0.213   4.955
18077SOL    HW158025   5.870   0.250   5.045
18077SOL    HW258026   5.863   0.118   4.949
18078SOL     OW58027   5.623   1.310   5.006
18078SOL    HW158028   5.676   1.261   5.074
18078SOL    HW258029   5.645   1.408   5.011
18079SOL     OW58030   6.318   0.634   4.788
18079SOL    HW158031   6.377   0.608   4.712
18079SOL    HW258032   6.290   0.730   4.777
18080SOL     OW58033   7.314   0.935   5.578
18080SOL    HW158034   7.268   0.928   5.489
18080SOL    HW258035   7.252   0.979   5.644
18081SOL     OW58036   5.893   0.063   4.342
18081SOL    HW158037   5.882   0.157   4.375
18081SOL    HW258038   5.888   0.000   4.419
18082SOL     OW58039   7.208   0.367   4.098
18082SOL    HW158040   7.210   0.291   4.162
18082SOL    HW258041   7.160   0.444   4.138
18083SOL     OW58042   6.609   0.766   4.690
18083SOL    HW158043   6.624   0.787   4.786
18083SOL    HW258044   6.579   0.671   4.681
18084SOL     OW58045   6.566   1.573   5.424
18084SOL    HW158046   6.546   1.617   5.336
18084SOL    HW258047   6.605   1.482   5.408
18085SOL     OW58048   7.445   1.518   5.329
18085SOL    HW158049   7.459   1.545   5.234
18085SOL    HW258050   7.528   1.540   5.382
18086SOL     OW58051   5.936   0.898   5.528
18086SOL    HW158052   6.012   0.942   5.576
18086SOL    HW258053   5.971   0.851   5.446
18087SOL     OW58054   7.126   0.274   3.849
18087SOL    HW158055   7.065   0.199   3.872
18087SOL    HW258056   7.148   0.326   3.932
18088SOL     OW58057   6.889   0.838   3.766
18088SOL    HW158058   6.923   0.745   3.781
18088SOL    HW258059   6.907   0.865   3.671
18089SOL     OW58060   6.654   1.333   4.573
18089SOL    HW158061   6.661   1.249   4.518
18089SOL    HW258062   6.716   1.402   4.537
18090SOL     OW58063   5.905   0.810   4.673
18090SOL    HW158064   5.998   0.846   4.678
18090SOL    HW258065   5.899   0.725   4.725
18091SOL     OW58066   5.925   0.509   4.730
18091SOL    HW158067   5.873   0.426   4.713
18091SOL    HW258068   6.002   0.514   4.666
18092SOL     OW58069   6.746   0.207   5.201
18092SOL    HW158070   6.746   0.271   5.278
18092SOL    HW258071   6.774   0.255   5.118
18093SOL     OW58072   5.594   1.326   3.924
18093SOL    HW158073   5.501   1.347   3.893
18093SOL    HW258074   5.604   1.227   3.937
18094SOL     OW58075   5.674   1.801   4.651
18094SOL    HW158076   5.632   1.715   4.624
18094SOL    HW258077   5.768   1.804   4.617
18095SOL     OW58078   6.090   1.568   4.634
18095SOL    HW158079   6.156   1.642   4.643
18095SOL    HW258080   6.134   1.489   4.592
18096SOL     OW58081   6.588   0.796   4.962
18096SOL    HW158082   6.629   0.764   5.048
18096SOL    HW258083   6.492   0.769   4.959
18097SOL     OW58084   5.626   0.544   4.838
18097SOL    HW158085   5.711   0.511   4.797
18097SOL    HW258086   5.639   0.559   4.936
18098SOL     OW58087   5.775   0.520   5.446
18098SOL    HW158088   5.834   0.480   5.376
18098SOL    HW258089   5.717   0.591   5.405
18099SOL     OW58090   6.955   0.950   5.384
18099SOL    HW158091   6.994   1.039   5.404
18099SOL    HW258092   6.965   0.930   5.287
18100SOL     OW58093   6.401   0.572   4.049
18100SOL    HW158094   6.408   0.483   4.003
18100SOL    HW258095   6.307   0.606   4.041
18101SOL     OW58096   7.243   0.604   4.930
18101SOL    HW158097   7.205   0.535   4.992
18101SOL    HW258098   7.325   0.568   4.886
18102SOL     OW58099   5.838   1.564   5.468
18102SOL    HW158100   5.808   1.621   5.544
18102SOL    HW258101   5.831   1.467   5.494
18103SOL     OW58102   6.257   0.464   4.993
18103SOL    HW158103   6.223   0.375   4.963
18103SOL    HW258104   6.283   0.518   4.913
18104SOL     OW58105   6.516   1.678   5.189
18104SOL    HW158106   6.492   1.660   5.094
18104SOL    HW258107   6.546   1.772   5.199
18105SOL     OW58108   6.059   0.500   3.915
18105SOL    HW158109   6.120   0.580   3.919
18105SOL    HW258110   5.964   0.531   3.922
18106SOL     OW58111   5.745   1.137   5.190
18106SOL    HW158112   5.767   1.076   5.266
18106SOL    HW258113   5.755   1.088   5.104
18107SOL     OW58114   6.933   1.059   4.958
18107SOL    HW158115   6.957   0.996   4.884
18107SOL    HW258116   6.843   1.099   4.940
18108SOL     OW58117   6.888   0.855   4.033
18108SOL    HW158118   6.802   0.824   4.075
18108SOL    HW258119   6.884   0.841   3.934
18109SOL     OW58120   7.345   1.747   4.878
18109SOL    HW158121   7.406   1.777   4.805
18109SOL    HW258122   7.307   1.658   4.856
18110SOL     OW58123   6.838   1.731   4.852
18110SOL    HW158124   6.922   1.736   4.798
18110SOL    HW258125   6.815   1.635   4.870
18111SOL     OW58126   5.669   1.258   4.746
18111SOL    HW158127   5.664   1.257   4.846
18111SOL    HW258128   5.586   1.217   4.708
18112SOL     OW58129   6.274   1.662   5.440
18112SOL    HW158130   6.218   1.743   5.449
18112SOL    HW258131   6.326   1.666   5.354
18113SOL     OW58132   7.312   0.135   4.247
18113SOL    HW158133   7.385   0.118   4.180
18113SOL    HW258134   7.281   0.048   4.285
18114SOL     OW58135   6.974   1.573   4.201
18114SOL    HW158136   7.041   1.585   4.127
18114SOL    HW258137   6.934   1.662   4.224
18115SOL     OW58138   5.716   1.794   5.575
18115SOL    HW158139   5.675   1.720   5.628
18115SOL    HW258140   5.780   1.845   5.633
18116SOL     OW58141   6.866   0.927   4.396
18116SOL    HW158142   6.926   0.846   4.398
18116SOL    HW258143   6.906   0.996   4.336
18117SOL     OW58144   6.416   1.273   5.146
18117SOL    HW158145   6.411   1.306   5.241
18117SOL    HW258146   6.330   1.292   5.100
18118SOL     OW58147   6.258   1.616   3.878
18118SOL    HW158148   6.267   1.626   3.779
18118SOL    HW258149   6.218   1.527   3.899
18119SOL     OW58150   7.236   1.720   5.118
18119SOL    HW158151   7.289   1.730   5.034
18119SOL    HW258152   7.209   1.810   5.152
18120SOL     OW58153   7.427   0.175   4.687
18120SOL    HW158154   7.466   0.090   4.651
18120SOL    HW258155   7.329   0.177   4.668
18121SOL     OW58156   5.849   0.326   4.444
18121SOL    HW158157   5.770   0.377   4.410
18121SOL    HW258158   5.840   0.311   4.542
18122SOL     OW58159   6.408   1.002   5.096
18122SOL    HW158160   6.448   1.001   5.004
18122SOL    HW258161   6.418   1.094   5.136
18123SOL     OW58162   6.502   0.910   4.015
18123SOL    HW158163   6.565   0.948   3.947
18123SOL    HW258164   6.542   0.827   4.054
18124SOL     OW58165   5.958   1.288   5.214
18124SOL    HW158166   5.945   1.381   5.180
18124SOL    HW258167   5.874   1.236   5.201
18125SOL     OW58168   6.625   1.098   4.420
18125SOL    HW158169   6.555   1.051   4.474
18125SOL    HW258170   6.684   1.030   4.377
18126SOL     OW58171   6.600   0.236   4.695
18126SOL    HW158172   6.592   0.200   4.602
18126SOL    HW258173   6.598   0.160   4.760
18127SOL     OW58174   6.176   1.487   4.215
18127SOL    HW158175   6.218   1.429   4.145
18127SOL    HW258176   6.132   1.566   4.171
18128SOL     OW58177   7.295   0.385   5.105
18128SOL    HW158178   7.368   0.454   5.109
18128SOL    HW258179   7.323   0.310   5.046
18129SOL     OW58180   5.841   1.348   4.014
18129SOL    HW158181   5.745   1.349   3.987
18129SOL    HW258182   5.853   1.401   4.098
18130SOL     OW58183   5.691   1.013   5.450
18130SOL    HW158184   5.614   0.980   5.504
18130SOL    HW258185   5.776   0.983   5.492
18131SOL     OW58186   6.258   0.203   5.213
18131SOL    HW158187   6.348   0.187   5.173
18131SOL    HW258188   6.266   0.208   5.312
18132SOL     OW58189   5.661   0.345   3.757
18132SOL    HW158190   5.569   0.317   3.728
18132SOL    HW258191   5.692   0.422   3.701
18133SOL     OW58192   7.026   0.856   5.122
18133SOL    HW158193   6.969   0.908   5.059
18133SOL    HW258194   7.122   0.868   5.098
18134SOL     OW58195   5.658   0.166   4.042
18134SOL    HW158196   5.641   0.249   3.988
18134SOL    HW258197   5.748   0.129   4.020
18135SOL     OW58198   6.199   0.842   5.155
18135SOL    HW158199   6.255   0.923   5.138
18135SOL    HW258200   6.258   0.762   5.158
18136SOL     OW58201   7.036   1.220   5.357
18136SOL    HW158202   7.027   1.210   5.456
18136SOL    HW258203   7.132   1.213   5.331
18137SOL     OW58204   5.976   1.741   5.284
18137SOL    HW158205   5.885   1.782   5.282
18137SOL    HW258206   5.969   1.647   5.316
18138SOL     OW58207   7.260   0.883   4.978
18138SOL    HW158208   7.233   0.794   4.941
18138SOL    HW258209   7.261   0.951   4.905
18139SOL     OW58210   6.811   0.325   4.173
18139SOL    HW158211   6.876   0.251   4.162
18139SOL    HW258212   6.831   0.375   4.257
18140SOL     OW58213   6.180   0.745   4.376
18140SOL    HW158214   6.230   0.830   4.357
18140SOL    HW258215   6.092   0.747   4.328
18141SOL     OW58216   7.363   0.342   5.366
18141SOL    HW158217   7.346   0.373   5.272
18141SOL    HW258218   7.279   0.305   5.404
18142SOL     OW58219   7.316   0.934   5.241
18142SOL    HW158220   7.354   1.025   5.256
18142SOL    HW258221   7.308   0.917   5.142
18143SOL     OW58222   6.445   1.374   3.740
18143SOL    HW158223   6.399   1.389   3.828
18143SOL    HW258224   6.489   1.459   3.710
18144SOL     OW58225   6.247   1.790   4.677
18144SOL    HW158226   6.201   1.878   4.664
18144SOL    HW258227   6.346   1.802   4.670
18145SOL     OW58228   6.445   0.956   4.585
18145SOL    HW158229   6.499   0.887   4.633
18145SOL    HW258230   6.413   1.025   4.651
18146SOL     OW58231   6.669   0.984   3.811
18146SOL    HW158232   6.646   1.037   3.729
18146SOL    HW258233   6.750   0.928   3.792
18147SOL     OW58234   5.807   1.314   5.568
18147SOL    HW158235   5.742   1.241   5.547
18147SOL    HW258236   5.811   1.328   5.666
18148SOL     OW58237   5.665   1.240   4.377
18148SOL    HW158238   5.664   1.193   4.465
18148SOL    HW258239   5.747   1.212   4.326
18149SOL     OW58240   6.258   1.391   5.348
18149SOL    HW158241   6.180   1.341   5.386
18149SOL    HW258242   6.255   1.486   5.379
18150SOL     OW58243   7.410   0.192   4.951
18150SOL    HW158244   7.406   0.102   4.995
18150SOL    HW258245   7.413   0.181   4.852
18151SOL     OW58246   6.014   0.424   4.244
18151SOL    HW158247   6.044   0.352   4.182
18151SOL    HW258248   5.975   0.384   4.327
18152SOL     OW58249   5.903   0.547   5.004
18152SOL    HW158250   5.941   0.488   5.076
18152SOL    HW258251   5.943   0.521   4.916
18153SOL     OW58252   6.398   1.586   4.411
18153SOL    HW158253   6.430   1.596   4.317
18153SOL    HW258254   6.319   1.524   4.413
18154SOL     OW58255   7.010   0.214   4.836
18154SOL    HW158256   7.062   0.149   4.891
18154SOL    HW258257   6.961   0.277   4.897
18155SOL     OW58258   6.587   0.034   4.878
18155SOL    HW158259   6.524  -0.038   4.847
18155SOL    HW258260   6.680  -0.002   4.878
18156SOL     OW58261   6.356   1.330   4.025
18156SOL    HW158262   6.310   1.243   4.042
18156SOL    HW258263   6.447   1.327   4.066
18157SOL     OW58264   6.204   1.567   5.008
18157SOL    HW158265   6.199   1.649   5.065
18157SOL    HW258266   6.293   1.564   4.963
18158SOL     OW58267   6.938   0.052   3.892
18158SOL    HW158268   6.973   0.011   3.808
18158SOL    HW258269   6.848   0.014   3.912
18159SOL     OW58270   6.886   0.453   4.415
18159SOL    HW158271   6.827   0.533   4.419
18159SOL    HW258272   6.901   0.418   4.508
18160SOL     OW58273   7.179   0.221   4.606
18160SOL    HW158274   7.095   0.220   4.660
18160SOL    HW258275   7.181   0.304   4.550
18161SOL     OW58276   5.625   1.077   4.024
18161SOL    HW158277   5.724   1.066   4.015
18161SOL    HW258278   5.585   0.991   4.056
18162SOL     OW58279   5.816   0.628   5.699
18162SOL    HW158280   5.723   0.626   5.736
18162SOL    HW258281   5.817   0.589   5.607
18163SOL     OW58282   5.605   0.368   6.233
18163SOL    HW158283   5.523   0.411   6.272
18163SOL    HW258284   5.577   0.295   6.170
18164SOL     OW58285   6.155   1.275   6.751
18164SOL    HW158286   6.062   1.268   6.714
18164SOL    HW258287   6.166   1.364   6.795
18165SOL     OW58288   7.141   1.511   6.289
18165SOL    HW158289   7.084   1.495   6.370
18165SOL    HW258290   7.082   1.521   6.209
18166SOL     OW58291   6.721   0.703   6.303
18166SOL    HW158292   6.778   0.781   6.278
18166SOL    HW258293   6.661   0.729   6.379
18167SOL     OW58294   7.341   0.607   5.817
18167SOL    HW158295   7.329   0.594   5.718
18167SOL    HW258296   7.311   0.526   5.866
18168SOL     OW58297   6.436   0.798   7.409
18168SOL    HW158298   6.432   0.874   7.474
18168SOL    HW258299   6.458   0.834   7.318
18169SOL     OW58300   6.271   1.012   6.251
18169SOL    HW158301   6.340   0.996   6.321
18169SOL    HW258302   6.198   1.069   6.289
18170SOL     OW58303   6.272   1.161   7.389
18170SOL    HW158304   6.332   1.240   7.403
18170SOL    HW258305   6.186   1.192   7.348
18171SOL     OW58306   7.046   1.505   6.925
18171SOL    HW158307   7.070   1.599   6.951
18171SOL    HW258308   7.030   1.451   7.007
18172SOL     OW58309   6.024   0.392   7.085
18172SOL    HW158310   6.106   0.336   7.094
18172SOL    HW258311   5.943   0.334   7.089
18173SOL     OW58312   7.189   0.447   6.323
18173SOL    HW158313   7.115   0.493   6.273
18173SOL    HW258314   7.240   0.515   6.376
18174SOL     OW58315   5.817   1.713   6.069
18174SOL    HW158316   5.851   1.790   6.123
18174SOL    HW258317   5.861   1.713   5.979
18175SOL     OW58318   6.713   1.341   7.276
18175SOL    HW158319   6.760   1.341   7.364
18175SOL    HW258320   6.665   1.254   7.265
18176SOL     OW58321   5.826   1.091   6.472
18176SOL    HW158322   5.840   1.007   6.524
18176SOL    HW258323   5.771   1.155   6.527
18177SOL     OW58324   6.206   1.786   7.025
18177SOL    HW158325   6.114   1.769   7.060
18177SOL    HW258326   6.234   1.878   7.051
18178SOL     OW58327   6.192   0.964   5.709
18178SOL    HW158328   6.199   1.048   5.655
18178SOL    HW258329   6.238   0.977   5.797
18179SOL     OW58330   7.180   0.114   7.066
18179SOL    HW158331   7.162   0.181   6.994
18179SOL    HW258332   7.177   0.160   7.155
18180SOL     OW58333   5.708   0.643   6.149
18180SOL    HW158334   5.663   0.555   6.166
18180SOL    HW258335   5.707   0.697   6.233
18181SOL     OW58336   7.428   1.767   5.945
18181SOL    HW158337   7.482   1.738   6.025
18181SOL    HW258338   7.458   1.857   5.916
18182SOL     OW58339   5.613   1.596   5.703
18182SOL    HW158340   5.594   1.500   5.724
18182SOL    HW258341   5.580   1.654   5.778
18183SOL     OW58342   7.275   0.922   6.198
18183SOL    HW158343   7.370   0.893   6.206
18183SOL    HW258344   7.267   0.987   6.123
18184SOL     OW58345   7.227   1.108   6.018
18184SOL    HW158346   7.313   1.110   5.966
18184SOL    HW258347   7.241   1.155   6.106
18185SOL     OW58348   5.699   0.737   7.183
18185SOL    HW158349   5.787   0.724   7.228
18185SOL    HW258350   5.686   0.834   7.161
18186SOL     OW58351   6.199   1.365   6.312
18186SOL    HW158352   6.150   1.278   6.321
18186SOL    HW258353   6.176   1.408   6.225
18187SOL     OW58354   6.879   1.228   7.009
18187SOL    HW158355   6.916   1.155   6.951
18187SOL    HW258356   6.931   1.233   7.094
18188SOL     OW58357   6.395   0.004   6.088
18188SOL    HW158358   6.435   0.095   6.079
18188SOL    HW258359   6.295   0.012   6.094
18189SOL     OW58360   5.783   0.976   6.850
18189SOL    HW158361   5.872   0.931   6.836
18189SOL    HW258362   5.710   0.911   6.831
18190SOL     OW58363   7.111   0.999   5.776
18190SOL    HW158364   7.048   0.923   5.789
18190SOL    HW258365   7.159   1.017   5.862
18191SOL     OW58366   6.773   1.792   7.202
18191SOL    HW158367   6.797   1.852   7.126
18191SOL    HW258368   6.780   1.697   7.172
18192SOL     OW58369   5.903   0.251   7.387
18192SOL    HW158370   5.974   0.322   7.393
18192SOL    HW258371   5.815   0.290   7.415
18193SOL     OW58372   7.052   1.417   6.539
18193SOL    HW158373   6.993   1.423   6.619
18193SOL    HW258374   7.037   1.329   6.493
18194SOL     OW58375   7.253   1.714   6.158
18194SOL    HW158376   7.212   1.691   6.070
18194SOL    HW258377   7.235   1.640   6.223
18195SOL     OW58378   6.184   0.729   5.856
18195SOL    HW158379   6.208   0.798   5.788
18195SOL    HW258380   6.106   0.762   5.910
18196SOL     OW58381   6.867   0.345   6.530
18196SOL    HW158382   6.781   0.295   6.517
18196SOL    HW258383   6.929   0.291   6.586
18197SOL     OW58384   7.162   1.662   5.893
18197SOL    HW158385   7.251   1.708   5.896
18197SOL    HW258386   7.141   1.638   5.798
18198SOL     OW58387   6.393   0.605   7.051
18198SOL    HW158388   6.346   0.602   7.140
18198SOL    HW258389   6.342   0.550   6.985
18199SOL     OW58390   6.980   0.469   7.260
18199SOL    HW158391   6.960   0.512   7.348
18199SOL    HW258392   7.058   0.407   7.269
18200SOL     OW58393   6.559   0.890   7.158
18200SOL    HW158394   6.605   0.806   7.129
18200SOL    HW258395   6.503   0.924   7.083
18201SOL     OW58396   6.577   0.410   6.828
18201SOL    HW158397   6.500   0.444   6.882
18201SOL    HW258398   6.543   0.359   6.749
18202SOL     OW58399   6.627   0.701   6.015
18202SOL    HW158400   6.653   0.697   6.111
18202SOL    HW258401   6.542   0.650   6.001
18203SOL     OW58402   5.662   0.811   6.375
18203SOL    HW158403   5.761   0.799   6.384
18203SOL    HW258404   5.638   0.906   6.396
18204SOL     OW58405   5.716   1.821   7.157
18204SOL    HW158406   5.706   1.806   7.256
18204SOL    HW258407   5.630   1.857   7.121
18205SOL     OW58408   6.451   0.348   5.781
18205SOL    HW158409   6.510   0.411   5.732
18205SOL    HW258410   6.470   0.254   5.752
18206SOL     OW58411   7.305   0.585   7.417
18206SOL    HW158412   7.279   0.674   7.381
18206SOL    HW258413   7.303   0.517   7.344
18207SOL     OW58414   6.948   1.144   6.131
18207SOL    HW158415   7.031   1.115   6.083
18207SOL    HW258416   6.899   1.211   6.075
18208SOL     OW58417   6.136   0.196   6.471
18208SOL    HW158418   6.131   0.191   6.571
18208SOL    HW258419   6.138   0.292   6.442
18209SOL     OW58420   6.594   1.456   6.063
18209SOL    HW158421   6.548   1.528   6.011
18209SOL    HW258422   6.590   1.476   6.161
18210SOL     OW58423   7.381   1.066   6.459
18210SOL    HW158424   7.319   1.051   6.383
18210SOL    HW258425   7.329   1.077   6.544
18211SOL     OW58426   6.813   1.550   7.092
18211SOL    HW158427   6.819   1.473   7.156
18211SOL    HW258428   6.761   1.524   7.012
18212SOL     OW58429   5.907   0.943   5.828
18212SOL    HW158430   5.989   0.982   5.786
18212SOL    HW258431   5.880   0.861   5.779
18213SOL     OW58432   7.044   0.735   6.314
18213SOL    HW158433   7.039   0.670   6.389
18213SOL    HW258434   7.124   0.794   6.327
18214SOL     OW58435   6.047   1.266   7.313
18214SOL    HW158436   5.997   1.267   7.227
18214SOL    HW258437   5.984   1.248   7.389
18215SOL     OW58438   6.697   1.776   5.823
18215SOL    HW158439   6.637   1.714   5.873
18215SOL    HW258440   6.728   1.732   5.738
18216SOL     OW58441   5.788   0.285   7.084
18216SOL    HW158442   5.708   0.345   7.071
18216SOL    HW258443   5.778   0.236   7.170
18217SOL     OW58444   7.218   1.377   5.667
18217SOL    HW158445   7.186   1.471   5.657
18217SOL    HW258446   7.142   1.314   5.655
18218SOL     OW58447   6.050   1.743   5.909
18218SOL    HW158448   6.083   1.782   5.995
18218SOL    HW258449   6.126   1.736   5.844
18219SOL     OW58450   6.986   0.107   6.012
18219SOL    HW158451   6.962   0.070   5.922
18219SOL    HW258452   7.085   0.123   6.016
18220SOL     OW58453   6.526   1.698   6.490
18220SOL    HW158454   6.606   1.641   6.511
18220SOL    HW258455   6.477   1.658   6.413
18221SOL     OW58456   5.968   0.700   6.066
18221SOL    HW158457   6.013   0.610   6.063
18221SOL    HW258458   5.874   0.689   6.099
18222SOL     OW58459   7.133   0.222   7.315
18222SOL    HW158460   7.128   0.259   7.407
18222SOL    HW258461   7.061   0.153   7.303
18223SOL     OW58462   6.200   0.122   5.703
18223SOL    HW158463   6.298   0.100   5.710
18223SOL    HW258464   6.169   0.105   5.610
18224SOL     OW58465   6.367   0.264   7.335
18224SOL    HW158466   6.434   0.203   7.378
18224SOL    HW258467   6.294   0.283   7.400
18225SOL     OW58468   6.474   1.514   6.781
18225SOL    HW158469   6.451   1.489   6.687
18225SOL    HW258470   6.535   1.445   6.820
18226SOL     OW58471   6.937   0.590   7.019
18226SOL    HW158472   6.965   0.547   7.104
18226SOL    HW258473   6.962   0.686   7.020
18227SOL     OW58474   6.508   0.503   6.485
18227SOL    HW158475   6.483   0.494   6.389
18227SOL    HW258476   6.556   0.421   6.516
18228SOL     OW58477   6.125   0.064   6.098
18228SOL    HW158478   6.044   0.065   6.156
18228SOL    HW258479   6.128   0.147   6.043
18229SOL     OW58480   7.020   1.188   5.627
18229SOL    HW158481   7.052   1.112   5.684
18229SOL    HW258482   6.928   1.215   5.657
18230SOL     OW58483   5.883   0.035   5.757
18230SOL    HW158484   5.932   0.119   5.736
18230SOL    HW258485   5.945  -0.030   5.802
18231SOL     OW58486   6.521   0.236   6.066
18231SOL    HW158487   6.473   0.277   5.988
18231SOL    HW258488   6.620   0.234   6.047
18232SOL     OW58489   6.662   0.683   7.050
18232SOL    HW158490   6.582   0.622   7.053
18232SOL    HW258491   6.743   0.630   7.026
18233SOL     OW58492   6.813   1.570   6.379
18233SOL    HW158493   6.834   1.644   6.314
18233SOL    HW258494   6.881   1.570   6.452
18234SOL     OW58495   6.045   1.152   6.327
18234SOL    HW158496   5.974   1.125   6.392
18234SOL    HW258497   6.019   1.124   6.234
18235SOL     OW58498   6.857   1.797   6.177
18235SOL    HW158499   6.901   1.861   6.113
18235SOL    HW258500   6.807   1.849   6.247
18236SOL     OW58501   5.664   0.556   6.972
18236SOL    HW158502   5.756   0.555   6.931
18236SOL    HW258503   5.658   0.630   7.039
18237SOL     OW58504   6.147   0.222   6.733
18237SOL    HW158505   6.185   0.138   6.770
18237SOL    HW258506   6.059   0.241   6.777
18238SOL     OW58507   6.452   0.454   6.228
18238SOL    HW158508   6.420   0.526   6.166
18238SOL    HW258509   6.476   0.373   6.175
18239SOL     OW58510   6.603   0.039   6.339
18239SOL    HW158511   6.531   0.044   6.270
18239SOL    HW258512   6.579  -0.030   6.408
18240SOL     OW58513   7.015   1.173   6.453
18240SOL    HW158514   6.960   1.089   6.446
18240SOL    HW258515   7.041   1.202   6.361
18241SOL     OW58516   7.052   0.590   6.578
18241SOL    HW158517   7.022   0.495   6.585
18241SOL    HW258518   7.125   0.606   6.644
18242SOL     OW58519   7.443   0.833   5.963
18242SOL    HW158520   7.485   0.769   6.027
18242SOL    HW258521   7.405   0.782   5.885
18243SOL     OW58522   6.074   1.385   5.760
18243SOL    HW158523   5.987   1.370   5.807
18243SOL    HW258524   6.057   1.411   5.665
18244SOL     OW58525   7.250   1.280   6.243
18244SOL    HW158526   7.349   1.288   6.257
18244SOL    HW258527   7.205   1.364   6.274
18245SOL     OW58528   6.976   0.575   5.664
18245SOL    HW158529   6.922   0.554   5.745
18245SOL    HW258530   7.067   0.534   5.673
18246SOL     OW58531   6.113   0.256   5.914
18246SOL    HW158532   6.140   0.197   5.839
18246SOL    HW258533   6.113   0.351   5.883
18247SOL     OW58534   7.340   1.223   7.174
18247SOL    HW158535   7.431   1.184   7.161
18247SOL    HW258536   7.348   1.319   7.198
18248SOL     OW58537   6.650   1.347   6.926
18248SOL    HW158538   6.570   1.324   6.981
18248SOL    HW258539   6.733   1.321   6.975
18249SOL     OW58540   7.178   1.629   7.211
18249SOL    HW158541   7.205   1.663   7.121
18249SOL    HW258542   7.257   1.591   7.257
18250SOL     OW58543   7.224   1.099   6.665
18250SOL    HW158544   7.229   1.180   6.724
18250SOL    HW258545   7.138   1.101   6.614
18251SOL     OW58546   6.501   0.089   6.988
18251SOL    HW158547   6.526   0.069   6.893
18251SOL    HW258548   6.573   0.145   7.030
18252SOL     OW58549   6.566   1.116   7.305
18252SOL    HW158550   6.467   1.122   7.315
18252SOL    HW258551   6.589   1.036   7.249
18253SOL     OW58552   6.291   1.050   5.954
18253SOL    HW158553   6.277   1.057   6.053
18253SOL    HW258554   6.375   0.999   5.936
18254SOL     OW58555   5.996   0.813   6.837
18254SOL    HW158556   6.082   0.825   6.887
18254SOL    HW258557   5.954   0.726   6.864
18255SOL     OW58558   6.860   0.386   6.848
18255SOL    HW158559   6.881   0.460   6.912
18255SOL    HW258560   6.771   0.403   6.805
18256SOL     OW58561   5.650   1.564   6.917
18256SOL    HW158562   5.604   1.646   6.883
18256SOL    HW258563   5.748   1.583   6.926
18257SOL     OW58564   5.953   1.100   6.087
18257SOL    HW158565   5.946   1.183   6.031
18257SOL    HW258566   5.957   1.020   6.027
18258SOL     OW58567   6.152   0.537   6.451
18258SOL    HW158568   6.164   0.603   6.377
18258SOL    HW258569   6.198   0.571   6.534
18259SOL     OW58570   6.838   1.348   5.974
18259SOL    HW158571   6.888   1.425   6.014
18259SOL    HW258572   6.743   1.350   6.006
18260SOL     OW58573   6.858   1.445   6.728
18260SOL    HW158574   6.905   1.458   6.815
18260SOL    HW258575   6.792   1.371   6.737
18261SOL     OW58576   7.168   0.639   6.058
18261SOL    HW158577   7.137   0.700   6.131
18261SOL    HW258578   7.218   0.691   5.989
18262SOL     OW58579   5.940   1.510   6.915
18262SOL    HW158580   5.919   1.466   6.828
18262SOL    HW258581   6.037   1.536   6.918
18263SOL     OW58582   5.988   0.751   7.184
18263SOL    HW158583   6.056   0.806   7.137
18263SOL    HW258584   6.028   0.663   7.211
18264SOL     OW58585   7.173   0.779   7.256
18264SOL    HW158586   7.081   0.817   7.251
18264SOL    HW258587   7.233   0.826   7.191
18265SOL     OW58588   6.599   0.105   7.356
18265SOL    HW158589   6.605   0.190   7.304
18265SOL    HW258590   6.631   0.029   7.299
18266SOL     OW58591   6.090   0.050   7.326
18266SOL    HW158592   6.048  -0.007   7.256
18266SOL    HW258593   6.024   0.119   7.358
18267SOL     OW58594   6.159   0.870   6.615
18267SOL    HW158595   6.203   0.959   6.606
18267SOL    HW258596   6.096   0.870   6.692
18268SOL     OW58597   6.946   0.862   6.631
18268SOL    HW158598   6.871   0.862   6.565
18268SOL    HW258599   6.983   0.770   6.640
18269SOL     OW58600   6.795   0.525   5.861
18269SOL    HW158601   6.808   0.441   5.915
18269SOL    HW258602   6.766   0.599   5.921
18270SOL     OW58603   5.893   0.213   6.817
18270SOL    HW158604   5.870   0.250   6.907
18270SOL    HW258605   5.863   0.118   6.811
18271SOL     OW58606   5.623   1.310   6.868
18271SOL    HW158607   5.676   1.261   6.936
18271SOL    HW258608   5.645   1.408   6.873
18272SOL     OW58609   6.318   0.634   6.650
18272SOL    HW158610   6.377   0.608   6.574
18272SOL    HW258611   6.290   0.730   6.639
18273SOL     OW58612   7.314   0.935   7.440
18273SOL    HW158613   7.268   0.928   7.351
18273SOL    HW258614   7.252   0.979   7.506
18274SOL     OW58615   5.893   0.063   6.204
18274SOL    HW158616   5.882   0.157   6.237
18274SOL    HW258617   5.888   0.000   6.281
18275SOL     OW58618   7.208   0.367   5.960
18275SOL    HW158619   7.210   0.291   6.024
18275SOL    HW258620   7.160   0.444   6.000
18276SOL     OW58621   6.609   0.766   6.552
18276SOL    HW158622   6.624   0.787   6.648
18276SOL    HW258623   6.579   0.671   6.543
18277SOL     OW58624   6.566   1.573   7.286
18277SOL    HW158625   6.546   1.617   7.198
18277SOL    HW258626   6.605   1.482   7.270
18278SOL     OW58627   7.445   1.518   7.191
18278SOL    HW158628   7.459   1.545   7.096
18278SOL    HW258629   7.528   1.540   7.244
18279SOL     OW58630   5.936   0.898   7.390
18279SOL    HW158631   6.012   0.942   7.438
18279SOL    HW258632   5.971   0.851   7.308
18280SOL     OW58633   7.126   0.274   5.711
18280SOL    HW158634   7.065   0.199   5.734
18280SOL    HW258635   7.148   0.326   5.794
18281SOL     OW58636   6.889   0.838   5.628
18281SOL    HW158637   6.923   0.745   5.643
18281SOL    HW258638   6.907   0.865   5.533
18282SOL     OW58639   5.905   0.810   6.535
18282SOL    HW158640   5.998   0.846   6.540
18282SOL    HW258641   5.899   0.725   6.587
18283SOL     OW58642   5.925   0.509   6.592
18283SOL    HW158643   5.873   0.426   6.575
18283SOL    HW258644   6.002   0.514   6.528
18284SOL     OW58645   6.724   0.380   7.264
18284SOL    HW158646   6.679   0.443   7.328
18284SOL    HW258647   6.817   0.411   7.247
18285SOL     OW58648   6.746   0.207   7.063
18285SOL    HW158649   6.746   0.271   7.140
18285SOL    HW258650   6.774   0.255   6.980
18286SOL     OW58651   5.594   1.326   5.786
18286SOL    HW158652   5.501   1.347   5.755
18286SOL    HW258653   5.604   1.227   5.799
18287SOL     OW58654   6.588   0.796   6.824
18287SOL    HW158655   6.629   0.764   6.910
18287SOL    HW258656   6.492   0.769   6.821
18288SOL     OW58657   5.626   0.544   6.700
18288SOL    HW158658   5.711   0.511   6.659
18288SOL    HW258659   5.639   0.559   6.798
18289SOL     OW58660   5.775   0.520   7.308
18289SOL    HW158661   5.834   0.480   7.238
18289SOL    HW258662   5.717   0.591   7.267
18290SOL     OW58663   6.955   0.950   7.246
18290SOL    HW158664   6.994   1.039   7.266
18290SOL    HW258665   6.965   0.930   7.149
18291SOL     OW58666   6.401   0.572   5.911
18291SOL    HW158667   6.408   0.483   5.865
18291SOL    HW258668   6.307   0.606   5.903
18292SOL     OW58669   7.243   0.604   6.792
18292SOL    HW158670   7.205   0.535   6.854
18292SOL    HW258671   7.325   0.568   6.748
18293SOL     OW58672   5.838   1.564   7.330
18293SOL    HW158673   5.808   1.621   7.406
18293SOL    HW258674   5.831   1.467   7.356
18294SOL     OW58675   6.257   0.464   6.855
18294SOL    HW158676   6.223   0.375   6.825
18294SOL    HW258677   6.283   0.518   6.775
18295SOL     OW58678   6.516   1.678   7.051
18295SOL    HW158679   6.492   1.660   6.956
18295SOL    HW258680   6.546   1.772   7.061
18296SOL     OW58681   6.059   0.500   5.777
18296SOL    HW158682   6.120   0.580   5.781
18296SOL    HW258683   5.964   0.531   5.784
18297SOL     OW58684   5.745   1.137   7.052
18297SOL    HW158685   5.767   1.076   7.128
18297SOL    HW258686   5.755   1.088   6.966
18298SOL     OW58687   6.933   1.059   6.820
18298SOL    HW158688   6.957   0.996   6.746
18298SOL    HW258689   6.843   1.099   6.802
18299SOL     OW58690   6.888   0.855   5.895
18299SOL    HW158691   6.802   0.824   5.937
18299SOL    HW258692   6.884   0.841   5.796
18300SOL     OW58693   6.838   1.731   6.714
18300SOL    HW158694   6.922   1.736   6.660
18300SOL    HW258695   6.815   1.635   6.732
18301SOL     OW58696   5.669   1.258   6.608
18301SOL    HW158697   5.664   1.257   6.708
18301SOL    HW258698   5.586   1.217   6.570
18302SOL     OW58699   6.274   1.662   7.302
18302SOL    HW158700   6.218   1.743   7.311
18302SOL    HW258701   6.326   1.666   7.216
18303SOL     OW58702   7.312   0.135   6.109
18303SOL    HW158703   7.385   0.118   6.042
18303SOL    HW258704   7.281   0.048   6.147
18304SOL     OW58705   6.974   1.573   6.063
18304SOL    HW158706   7.041   1.585   5.989
18304SOL    HW258707   6.934   1.662   6.086
18305SOL     OW58708   5.716   1.794   7.437
18305SOL    HW158709   5.675   1.720   7.490
18305SOL    HW258710   5.780   1.845   7.495
18306SOL     OW58711   6.866   0.927   6.258
18306SOL    HW158712   6.926   0.846   6.260
18306SOL    HW258713   6.906   0.996   6.198
18307SOL     OW58714   6.416   1.273   7.008
18307SOL    HW158715   6.411   1.306   7.103
18307SOL    HW258716   6.330   1.292   6.962
18308SOL     OW58717   6.258   1.616   5.740
18308SOL    HW158718   6.267   1.626   5.641
18308SOL    HW258719   6.218   1.527   5.761
18309SOL     OW58720   7.427   0.175   6.549
18309SOL    HW158721   7.466   0.090   6.513
18309SOL    HW258722   7.329   0.177   6.530
18310SOL     OW58723   5.849   0.326   6.306
18310SOL    HW158724   5.770   0.377   6.272
18310SOL    HW258725   5.840   0.311   6.404
18311SOL     OW58726   6.780   1.612   5.617
18311SOL    HW158727   6.786   1.519   5.654
18311SOL    HW258728   6.721   1.612   5.537
18312SOL     OW58729   6.408   1.002   6.958
18312SOL    HW158730   6.448   1.001   6.866
18312SOL    HW258731   6.418   1.094   6.998
18313SOL     OW58732   6.502   0.910   5.877
18313SOL    HW158733   6.565   0.948   5.809
18313SOL    HW258734   6.542   0.827   5.916
18314SOL     OW58735   7.090   1.607   5.630
18314SOL    HW158736   6.998   1.644   5.637
18314SOL    HW258737   7.128   1.627   5.540
18315SOL     OW58738   5.958   1.288   7.076
18315SOL    HW158739   5.945   1.381   7.042
18315SOL    HW258740   5.874   1.236   7.063
18316SOL     OW58741   7.200   1.292   6.875
18316SOL    HW158742   7.260   1.295   6.955
18316SOL    HW258743   7.125   1.356   6.888
18317SOL     OW58744   6.600   0.236   6.557
18317SOL    HW158745   6.592   0.200   6.464
18317SOL    HW258746   6.598   0.160   6.622
18318SOL     OW58747   6.176   1.487   6.077
18318SOL    HW158748   6.218   1.429   6.007
18318SOL    HW258749   6.132   1.566   6.033
18319SOL     OW58750   7.295   0.385   6.967
18319SOL    HW158751   7.368   0.454   6.971
18319SOL    HW258752   7.323   0.310   6.908
18320SOL     OW58753   5.841   1.348   5.876
18320SOL    HW158754   5.745   1.349   5.849
18320SOL    HW258755   5.853   1.401   5.960
18321SOL     OW58756   5.691   1.013   7.312
18321SOL    HW158757   5.614   0.980   7.366
18321SOL    HW258758   5.776   0.983   7.354
18322SOL     OW58759   6.258   0.203   7.075
18322SOL    HW158760   6.348   0.187   7.035
18322SOL    HW258761   6.266   0.208   7.174
18323SOL     OW58762   5.661   0.345   5.619
18323SOL    HW158763   5.569   0.317   5.590
18323SOL    HW258764   5.692   0.422   5.563
18324SOL     OW58765   7.026   0.856   6.984
18324SOL    HW158766   6.969   0.908   6.921
18324SOL    HW258767   7.122   0.868   6.960
18325SOL     OW58768   5.658   0.166   5.904
18325SOL    HW158769   5.641   0.249   5.850
18325SOL    HW258770   5.748   0.129   5.882
18326SOL     OW58771   6.769   1.335   5.705
18326SOL    HW158772   6.670   1.324   5.707
18326SOL    HW258773   6.803   1.350   5.798
18327SOL     OW58774   6.199   0.842   7.017
18327SOL    HW158775   6.255   0.923   7.000
18327SOL    HW258776   6.258   0.762   7.020
18328SOL     OW58777   6.302   0.565   7.294
18328SOL    HW158778   6.321   0.630   7.368
18328SOL    HW258779   6.362   0.485   7.303
18329SOL     OW58780   7.036   1.220   7.219
18329SOL    HW158781   7.027   1.210   7.318
18329SOL    HW258782   7.132   1.213   7.193
18330SOL     OW58783   5.976   1.741   7.146
18330SOL    HW158784   5.885   1.782   7.144
18330SOL    HW258785   5.969   1.647   7.178
18331SOL     OW58786   7.260   0.883   6.840
18331SOL    HW158787   7.233   0.794   6.803
18331SOL    HW258788   7.261   0.951   6.767
18332SOL     OW58789   6.811   0.325   6.035
18332SOL    HW158790   6.876   0.251   6.024
18332SOL    HW258791   6.831   0.375   6.119
18333SOL     OW58792   6.180   0.745   6.238
18333SOL    HW158793   6.230   0.830   6.219
18333SOL    HW258794   6.092   0.747   6.190
18334SOL     OW58795   7.363   0.342   7.228
18334SOL    HW158796   7.346   0.373   7.134
18334SOL    HW258797   7.279   0.305   7.266
18335SOL     OW58798   7.316   0.934   7.103
18335SOL    HW158799   7.354   1.025   7.118
18335SOL    HW258800   7.308   0.917   7.004
18336SOL     OW58801   6.445   1.374   5.602
18336SOL    HW158802   6.399   1.389   5.690
18336SOL    HW258803   6.489   1.459   5.572
18337SOL     OW58804   6.247   1.790   6.539
18337SOL    HW158805   6.201   1.878   6.526
18337SOL    HW258806   6.346   1.802   6.532
18338SOL     OW58807   6.445   0.956   6.447
18338SOL    HW158808   6.499   0.887   6.495
18338SOL    HW258809   6.413   1.025   6.513
18339SOL     OW58810   7.447   1.569   6.437
18339SOL    HW158811   7.376   1.557   6.367
18339SOL    HW258812   7.448   1.490   6.497
18340SOL     OW58813   5.807   1.314   7.430
18340SOL    HW158814   5.742   1.241   7.409
18340SOL    HW258815   5.811   1.328   7.528
18341SOL     OW58816   5.665   1.240   6.239
18341SOL    HW158817   5.664   1.193   6.327
18341SOL    HW258818   5.747   1.212   6.188
18342SOL     OW58819   6.258   1.391   7.210
18342SOL    HW158820   6.180   1.341   7.248
18342SOL    HW258821   6.255   1.486   7.241
18343SOL     OW58822   7.410   0.192   6.813
18343SOL    HW158823   7.406   0.102   6.857
18343SOL    HW258824   7.413   0.181   6.714
18344SOL     OW58825   6.014   0.424   6.106
18344SOL    HW158826   6.044   0.352   6.044
18344SOL    HW258827   5.975   0.384   6.189
18345SOL     OW58828   7.291   1.487   6.690
18345SOL    HW158829   7.198   1.462   6.663
18345SOL    HW258830   7.317   1.437   6.772
18346SOL     OW58831   5.903   0.547   6.866
18346SOL    HW158832   5.941   0.488   6.938
18346SOL    HW258833   5.943   0.521   6.778
18347SOL     OW58834   7.010   0.214   6.698
18347SOL    HW158835   7.062   0.149   6.753
18347SOL    HW258836   6.961   0.277   6.759
18348SOL     OW58837   6.587   0.034   6.740
18348SOL    HW158838   6.524  -0.038   6.709
18348SOL    HW258839   6.680  -0.002   6.740
18349SOL     OW58840   6.356   1.330   5.887
18349SOL    HW158841   6.310   1.243   5.904
18349SOL    HW258842   6.447   1.327   5.928
18350SOL     OW58843   6.204   1.567   6.870
18350SOL    HW158844   6.199   1.649   6.927
18350SOL    HW258845   6.293   1.564   6.825
18351SOL     OW58846   6.938   0.052   5.754
18351SOL    HW158847   6.973   0.011   5.670
18351SOL    HW258848   6.848   0.014   5.774
18352SOL     OW58849   6.886   0.453   6.277
18352SOL    HW158850   6.827   0.533   6.281
18352SOL    HW258851   6.901   0.418   6.370
18353SOL     OW58852   7.179   0.221   6.468
18353SOL    HW158853   7.095   0.220   6.522
18353SOL    HW258854   7.181   0.304   6.412
18354SOL     OW58855   5.625   1.077   5.886
18354SOL    HW158856   5.724   1.066   5.877
18354SOL    HW258857   5.585   0.991   5.918
18355SOL     OW58858   6.461   1.646   5.923
18355SOL    HW158859   6.384   1.611   5.869
18355SOL    HW258860   6.429   1.717   5.985
18356SOL     OW58861   5.816   0.628   7.561
18356SOL    HW158862   5.723   0.626   7.598
18356SOL    HW258863   5.817   0.589   7.469
18357SOL     OW58864   5.811   0.275   8.444
18357SOL    HW158865   5.846   0.258   8.536
18357SOL    HW258866   5.723   0.230   8.432
18358SOL     OW58867   5.605   0.368   8.095
18358SOL    HW158868   5.523   0.411   8.134
18358SOL    HW258869   5.577   0.295   8.032
18359SOL     OW58870   6.155   1.275   8.613
18359SOL    HW158871   6.062   1.268   8.576
18359SOL    HW258872   6.166   1.364   8.657
18360SOL     OW58873   7.141   1.511   8.151
18360SOL    HW158874   7.084   1.495   8.232
18360SOL    HW258875   7.082   1.521   8.071
18361SOL     OW58876   6.721   0.703   8.165
18361SOL    HW158877   6.778   0.781   8.140
18361SOL    HW258878   6.661   0.729   8.241
18362SOL     OW58879   7.341   0.607   7.679
18362SOL    HW158880   7.329   0.594   7.580
18362SOL    HW258881   7.311   0.526   7.728
18363SOL     OW58882   6.436   0.798   9.271
18363SOL    HW158883   6.432   0.874   9.336
18363SOL    HW258884   6.458   0.834   9.180
18364SOL     OW58885   6.271   1.012   8.113
18364SOL    HW158886   6.340   0.996   8.183
18364SOL    HW258887   6.198   1.069   8.151
18365SOL     OW58888   6.272   1.161   9.251
18365SOL    HW158889   6.332   1.240   9.265
18365SOL    HW258890   6.186   1.192   9.210
18366SOL     OW58891   5.921   1.435   8.509
18366SOL    HW158892   5.843   1.404   8.456
18366SOL    HW258893   5.979   1.493   8.452
18367SOL     OW58894   6.024   0.392   8.947
18367SOL    HW158895   6.106   0.336   8.956
18367SOL    HW258896   5.943   0.334   8.951
18368SOL     OW58897   7.189   0.447   8.185
18368SOL    HW158898   7.115   0.493   8.135
18368SOL    HW258899   7.240   0.515   8.238
18369SOL     OW58900   5.817   1.713   7.931
18369SOL    HW158901   5.851   1.790   7.985
18369SOL    HW258902   5.861   1.713   7.841
18370SOL     OW58903   6.713   1.341   9.138
18370SOL    HW158904   6.760   1.341   9.226
18370SOL    HW258905   6.665   1.254   9.127
18371SOL     OW58906   5.816   1.434   7.986
18371SOL    HW158907   5.790   1.530   7.986
18371SOL    HW258908   5.745   1.380   8.031
18372SOL     OW58909   5.826   1.091   8.334
18372SOL    HW158910   5.840   1.007   8.386
18372SOL    HW258911   5.771   1.155   8.389
18373SOL     OW58912   6.206   1.786   8.887
18373SOL    HW158913   6.114   1.769   8.922
18373SOL    HW258914   6.234   1.878   8.913
18374SOL     OW58915   6.192   0.964   7.571
18374SOL    HW158916   6.199   1.048   7.517
18374SOL    HW258917   6.238   0.977   7.659
18375SOL     OW58918   7.180   0.114   8.928
18375SOL    HW158919   7.162   0.181   8.856
18375SOL    HW258920   7.177   0.160   9.017
18376SOL     OW58921   5.708   0.643   8.011
18376SOL    HW158922   5.663   0.555   8.028
18376SOL    HW258923   5.707   0.697   8.095
18377SOL     OW58924   7.428   1.767   7.807
18377SOL    HW158925   7.482   1.738   7.887
18377SOL    HW258926   7.458   1.857   7.778
18378SOL     OW58927   5.613   1.596   7.565
18378SOL    HW158928   5.594   1.500   7.586
18378SOL    HW258929   5.580   1.654   7.640
18379SOL     OW58930   7.275   0.922   8.060
18379SOL    HW158931   7.370   0.893   8.068
18379SOL    HW258932   7.267   0.987   7.985
18380SOL     OW58933   7.227   1.108   7.880
18380SOL    HW158934   7.313   1.110   7.828
18380SOL    HW258935   7.241   1.155   7.968
18381SOL     OW58936   5.699   0.737   9.045
18381SOL    HW158937   5.787   0.724   9.090
18381SOL    HW258938   5.686   0.834   9.023
18382SOL     OW58939   6.879   1.228   8.871
18382SOL    HW158940   6.916   1.155   8.813
18382SOL    HW258941   6.931   1.233   8.956
18383SOL     OW58942   6.395   0.004   7.950
18383SOL    HW158943   6.435   0.095   7.941
18383SOL    HW258944   6.295   0.012   7.956
18384SOL     OW58945   5.783   0.976   8.712
18384SOL    HW158946   5.872   0.931   8.698
18384SOL    HW258947   5.710   0.911   8.693
18385SOL     OW58948   7.111   0.999   7.638
18385SOL    HW158949   7.048   0.923   7.651
18385SOL    HW258950   7.159   1.017   7.724
18386SOL     OW58951   6.773   1.792   9.064
18386SOL    HW158952   6.797   1.852   8.988
18386SOL    HW258953   6.780   1.697   9.034
18387SOL     OW58954   5.903   0.251   9.249
18387SOL    HW158955   5.974   0.322   9.255
18387SOL    HW258956   5.815   0.290   9.277
18388SOL     OW58957   7.253   1.714   8.020
18388SOL    HW158958   7.212   1.691   7.932
18388SOL    HW258959   7.235   1.640   8.085
18389SOL     OW58960   6.184   0.729   7.718
18389SOL    HW158961   6.208   0.798   7.650
18389SOL    HW258962   6.106   0.762   7.772
18390SOL     OW58963   7.162   1.662   7.755
18390SOL    HW158964   7.251   1.708   7.758
18390SOL    HW258965   7.141   1.638   7.660
18391SOL     OW58966   6.393   0.605   8.913
18391SOL    HW158967   6.346   0.602   9.002
18391SOL    HW258968   6.342   0.550   8.847
18392SOL     OW58969   6.980   0.469   9.122
18392SOL    HW158970   6.960   0.512   9.210
18392SOL    HW258971   7.058   0.407   9.131
18393SOL     OW58972   6.559   0.890   9.020
18393SOL    HW158973   6.605   0.806   8.991
18393SOL    HW258974   6.503   0.924   8.945
18394SOL     OW58975   6.627   0.701   7.877
18394SOL    HW158976   6.653   0.697   7.973
18394SOL    HW258977   6.542   0.650   7.863
18395SOL     OW58978   5.662   0.811   8.237
18395SOL    HW158979   5.761   0.799   8.246
18395SOL    HW258980   5.638   0.906   8.258
18396SOL     OW58981   5.716   1.821   9.019
18396SOL    HW158982   5.706   1.806   9.118
18396SOL    HW258983   5.630   1.857   8.983
18397SOL     OW58984   6.451   0.348   7.643
18397SOL    HW158985   6.510   0.411   7.594
18397SOL    HW258986   6.470   0.254   7.614
18398SOL     OW58987   7.305   0.585   9.279
18398SOL    HW158988   7.279   0.674   9.243
18398SOL    HW258989   7.303   0.517   9.206
18399SOL     OW58990   6.948   1.144   7.993
18399SOL    HW158991   7.031   1.115   7.945
18399SOL    HW258992   6.899   1.211   7.937
18400SOL     OW58993   6.136   0.196   8.333
18400SOL    HW158994   6.131   0.191   8.433
18400SOL    HW258995   6.138   0.292   8.304
18401SOL     OW58996   6.594   1.456   7.925
18401SOL    HW158997   6.548   1.528   7.873
18401SOL    HW258998   6.590   1.476   8.023
18402SOL     OW58999   5.937   1.801   8.301
18402SOL    HW159000   5.987   1.715   8.307
18402SOL    HW259001   6.002   1.878   8.298
18403SOL     OW59002   7.381   1.066   8.321
18403SOL    HW159003   7.319   1.051   8.245
18403SOL    HW259004   7.329   1.077   8.406
18404SOL     OW59005   6.813   1.550   8.954
18404SOL    HW159006   6.819   1.473   9.018
18404SOL    HW259007   6.761   1.524   8.874
18405SOL     OW59008   5.907   0.943   7.690
18405SOL    HW159009   5.989   0.982   7.648
18405SOL    HW259010   5.880   0.861   7.641
18406SOL     OW59011   7.044   0.735   8.176
18406SOL    HW159012   7.039   0.670   8.251
18406SOL    HW259013   7.124   0.794   8.189
18407SOL     OW59014   6.047   1.266   9.175
18407SOL    HW159015   5.997   1.267   9.089
18407SOL    HW259016   5.984   1.248   9.251
18408SOL     OW59017   6.697   1.776   7.685
18408SOL    HW159018   6.637   1.714   7.735
18408SOL    HW259019   6.728   1.732   7.600
18409SOL     OW59020   5.788   0.285   8.946
18409SOL    HW159021   5.708   0.345   8.933
18409SOL    HW259022   5.778   0.236   9.032
18410SOL     OW59023   7.218   1.377   7.529
18410SOL    HW159024   7.186   1.471   7.519
18410SOL    HW259025   7.142   1.314   7.517
18411SOL     OW59026   6.050   1.743   7.771
18411SOL    HW159027   6.083   1.782   7.857
18411SOL    HW259028   6.126   1.736   7.706
18412SOL     OW59029   6.986   0.107   7.874
18412SOL    HW159030   6.962   0.070   7.784
18412SOL    HW259031   7.085   0.123   7.878
18413SOL     OW59032   5.835   1.785   8.689
18413SOL    HW159033   5.892   1.720   8.739
18413SOL    HW259034   5.819   1.752   8.596
18414SOL     OW59035   5.968   0.700   7.928
18414SOL    HW159036   6.013   0.610   7.925
18414SOL    HW259037   5.874   0.689   7.961
18415SOL     OW59038   7.133   0.222   9.177
18415SOL    HW159039   7.128   0.259   9.269
18415SOL    HW259040   7.061   0.153   9.165
18416SOL     OW59041   6.200   0.122   7.565
18416SOL    HW159042   6.298   0.100   7.572
18416SOL    HW259043   6.169   0.105   7.472
18417SOL     OW59044   6.367   0.264   9.197
18417SOL    HW159045   6.434   0.203   9.240
18417SOL    HW259046   6.294   0.283   9.262
18418SOL     OW59047   6.474   1.514   8.643
18418SOL    HW159048   6.451   1.489   8.549
18418SOL    HW259049   6.535   1.445   8.682
18419SOL     OW59050   6.937   0.590   8.881
18419SOL    HW159051   6.965   0.547   8.966
18419SOL    HW259052   6.962   0.686   8.882
18420SOL     OW59053   6.508   0.503   8.347
18420SOL    HW159054   6.483   0.494   8.251
18420SOL    HW259055   6.556   0.421   8.378
18421SOL     OW59056   6.125   0.064   7.960
18421SOL    HW159057   6.044   0.065   8.018
18421SOL    HW259058   6.128   0.147   7.905
18422SOL     OW59059   7.020   1.188   7.489
18422SOL    HW159060   7.052   1.112   7.546
18422SOL    HW259061   6.928   1.215   7.519
18423SOL     OW59062   5.883   0.035   7.619
18423SOL    HW159063   5.932   0.119   7.598
18423SOL    HW259064   5.945  -0.030   7.664
18424SOL     OW59065   6.521   0.236   7.928
18424SOL    HW159066   6.473   0.277   7.850
18424SOL    HW259067   6.620   0.234   7.909
18425SOL     OW59068   6.662   0.683   8.912
18425SOL    HW159069   6.582   0.622   8.915
18425SOL    HW259070   6.743   0.630   8.888
18426SOL     OW59071   6.813   1.570   8.241
18426SOL    HW159072   6.834   1.644   8.176
18426SOL    HW259073   6.881   1.570   8.314
18427SOL     OW59074   6.045   1.152   8.189
18427SOL    HW159075   5.974   1.125   8.254
18427SOL    HW259076   6.019   1.124   8.096
18428SOL     OW59077   6.857   1.797   8.039
18428SOL    HW159078   6.901   1.861   7.975
18428SOL    HW259079   6.807   1.849   8.109
18429SOL     OW59080   6.618   0.549   7.464
18429SOL    HW159081   6.577   0.631   7.425
18429SOL    HW259082   6.682   0.575   7.537
18430SOL     OW59083   5.664   0.556   8.834
18430SOL    HW159084   5.756   0.555   8.793
18430SOL    HW259085   5.658   0.630   8.901
18431SOL     OW59086   6.147   0.222   8.595
18431SOL    HW159087   6.185   0.138   8.632
18431SOL    HW259088   6.059   0.241   8.639
18432SOL     OW59089   6.452   0.454   8.090
18432SOL    HW159090   6.420   0.526   8.028
18432SOL    HW259091   6.476   0.373   8.037
18433SOL     OW59092   6.603   0.039   8.201
18433SOL    HW159093   6.531   0.044   8.132
18433SOL    HW259094   6.579  -0.030   8.270
18434SOL     OW59095   7.015   1.173   8.315
18434SOL    HW159096   6.960   1.089   8.308
18434SOL    HW259097   7.041   1.202   8.223
18435SOL     OW59098   7.443   0.833   7.825
18435SOL    HW159099   7.485   0.769   7.889
18435SOL    HW259100   7.405   0.782   7.747
18436SOL     OW59101   6.074   1.385   7.622
18436SOL    HW159102   5.987   1.370   7.669
18436SOL    HW259103   6.057   1.411   7.527
18437SOL     OW59104   7.250   1.280   8.105
18437SOL    HW159105   7.349   1.288   8.119
18437SOL    HW259106   7.205   1.364   8.136
18438SOL     OW59107   6.976   0.575   7.526
18438SOL    HW159108   6.922   0.554   7.607
18438SOL    HW259109   7.067   0.534   7.535
18439SOL     OW59110   6.113   0.256   7.776
18439SOL    HW159111   6.140   0.197   7.701
18439SOL    HW259112   6.113   0.351   7.745
18440SOL     OW59113   7.340   1.223   9.036
18440SOL    HW159114   7.431   1.184   9.023
18440SOL    HW259115   7.348   1.319   9.060
18441SOL     OW59116   6.650   1.347   8.788
18441SOL    HW159117   6.570   1.324   8.843
18441SOL    HW259118   6.733   1.321   8.837
18442SOL     OW59119   7.178   1.629   9.073
18442SOL    HW159120   7.205   1.663   8.983
18442SOL    HW259121   7.257   1.591   9.119
18443SOL     OW59122   6.697   1.195   8.548
18443SOL    HW159123   6.657   1.239   8.629
18443SOL    HW259124   6.656   1.232   8.465
18444SOL     OW59125   7.224   1.099   8.527
18444SOL    HW159126   7.229   1.180   8.586
18444SOL    HW259127   7.138   1.101   8.476
18445SOL     OW59128   6.501   0.089   8.850
18445SOL    HW159129   6.526   0.069   8.755
18445SOL    HW259130   6.573   0.145   8.892
18446SOL     OW59131   6.566   1.116   9.167
18446SOL    HW159132   6.467   1.122   9.177
18446SOL    HW259133   6.589   1.036   9.111
18447SOL     OW59134   6.291   1.050   7.816
18447SOL    HW159135   6.277   1.057   7.915
18447SOL    HW259136   6.375   0.999   7.798
18448SOL     OW59137   5.996   0.813   8.699
18448SOL    HW159138   6.082   0.825   8.749
18448SOL    HW259139   5.954   0.726   8.726
18449SOL     OW59140   5.650   1.564   8.779
18449SOL    HW159141   5.604   1.646   8.745
18449SOL    HW259142   5.748   1.583   8.788
18450SOL     OW59143   5.953   1.100   7.949
18450SOL    HW159144   5.946   1.183   7.893
18450SOL    HW259145   5.957   1.020   7.889
18451SOL     OW59146   6.152   0.537   8.313
18451SOL    HW159147   6.164   0.603   8.239
18451SOL    HW259148   6.198   0.571   8.396
18452SOL     OW59149   6.838   1.348   7.836
18452SOL    HW159150   6.888   1.425   7.876
18452SOL    HW259151   6.743   1.350   7.868
18453SOL     OW59152   6.858   1.445   8.590
18453SOL    HW159153   6.905   1.458   8.677
18453SOL    HW259154   6.792   1.371   8.599
18454SOL     OW59155   7.168   0.639   7.920
18454SOL    HW159156   7.137   0.700   7.993
18454SOL    HW259157   7.218   0.691   7.851
18455SOL     OW59158   5.940   1.510   8.777
18455SOL    HW159159   5.919   1.466   8.690
18455SOL    HW259160   6.037   1.536   8.780
18456SOL     OW59161   5.988   0.751   9.046
18456SOL    HW159162   6.056   0.806   8.999
18456SOL    HW259163   6.028   0.663   9.073
18457SOL     OW59164   7.173   0.779   9.118
18457SOL    HW159165   7.081   0.817   9.113
18457SOL    HW259166   7.233   0.826   9.053
18458SOL     OW59167   6.090   0.050   9.188
18458SOL    HW159168   6.048  -0.007   9.118
18458SOL    HW259169   6.024   0.119   9.220
18459SOL     OW59170   6.159   0.870   8.477
18459SOL    HW159171   6.203   0.959   8.468
18459SOL    HW259172   6.096   0.870   8.554
18460SOL     OW59173   6.946   0.862   8.493
18460SOL    HW159174   6.871   0.862   8.427
18460SOL    HW259175   6.983   0.770   8.502
18461SOL     OW59176   6.795   0.525   7.723
18461SOL    HW159177   6.808   0.441   7.777
18461SOL    HW259178   6.766   0.599   7.783
18462SOL     OW59179   5.893   0.213   8.679
18462SOL    HW159180   5.870   0.250   8.769
18462SOL    HW259181   5.863   0.118   8.673
18463SOL     OW59182   5.623   1.310   8.730
18463SOL    HW159183   5.676   1.261   8.798
18463SOL    HW259184   5.645   1.408   8.735
18464SOL     OW59185   6.318   0.634   8.512
18464SOL    HW159186   6.377   0.608   8.436
18464SOL    HW259187   6.290   0.730   8.501
18465SOL     OW59188   7.314   0.935   9.302
18465SOL    HW159189   7.268   0.928   9.213
18465SOL    HW259190   7.252   0.979   9.368
18466SOL     OW59191   5.893   0.063   8.066
18466SOL    HW159192   5.882   0.157   8.099
18466SOL    HW259193   5.888   0.000   8.143
18467SOL     OW59194   7.208   0.367   7.822
18467SOL    HW159195   7.210   0.291   7.886
18467SOL    HW259196   7.160   0.444   7.862
18468SOL     OW59197   6.609   0.766   8.414
18468SOL    HW159198   6.624   0.787   8.510
18468SOL    HW259199   6.579   0.671   8.405
18469SOL     OW59200   6.566   1.573   9.148
18469SOL    HW159201   6.546   1.617   9.060
18469SOL    HW259202   6.605   1.482   9.132
18470SOL     OW59203   7.445   1.518   9.053
18470SOL    HW159204   7.459   1.545   8.958
18470SOL    HW259205   7.528   1.540   9.106
18471SOL     OW59206   5.936   0.898   9.252
18471SOL    HW159207   6.012   0.942   9.300
18471SOL    HW259208   5.971   0.851   9.170
18472SOL     OW59209   7.126   0.274   7.573
18472SOL    HW159210   7.065   0.199   7.596
18472SOL    HW259211   7.148   0.326   7.656
18473SOL     OW59212   6.889   0.838   7.490
18473SOL    HW159213   6.923   0.745   7.505
18473SOL    HW259214   6.907   0.865   7.395
18474SOL     OW59215   6.654   1.333   8.297
18474SOL    HW159216   6.661   1.249   8.242
18474SOL    HW259217   6.716   1.402   8.261
18475SOL     OW59218   5.905   0.810   8.397
18475SOL    HW159219   5.998   0.846   8.402
18475SOL    HW259220   5.899   0.725   8.449
18476SOL     OW59221   5.925   0.509   8.454
18476SOL    HW159222   5.873   0.426   8.437
18476SOL    HW259223   6.002   0.514   8.390
18477SOL     OW59224   6.724   0.380   9.126
18477SOL    HW159225   6.679   0.443   9.190
18477SOL    HW259226   6.817   0.411   9.109
18478SOL     OW59227   5.594   1.326   7.648
18478SOL    HW159228   5.501   1.347   7.617
18478SOL    HW259229   5.604   1.227   7.661
18479SOL     OW59230   5.674   1.801   8.375
18479SOL    HW159231   5.632   1.715   8.348
18479SOL    HW259232   5.768   1.804   8.341
18480SOL     OW59233   6.090   1.568   8.358
18480SOL    HW159234   6.156   1.642   8.367
18480SOL    HW259235   6.134   1.489   8.316
18481SOL     OW59236   6.588   0.796   8.686
18481SOL    HW159237   6.629   0.764   8.772
18481SOL    HW259238   6.492   0.769   8.683
18482SOL     OW59239   5.626   0.544   8.562
18482SOL    HW159240   5.711   0.511   8.521
18482SOL    HW259241   5.639   0.559   8.660
18483SOL     OW59242   5.775   0.520   9.170
18483SOL    HW159243   5.834   0.480   9.100
18483SOL    HW259244   5.717   0.591   9.129
18484SOL     OW59245   6.955   0.950   9.108
18484SOL    HW159246   6.994   1.039   9.128
18484SOL    HW259247   6.965   0.930   9.011
18485SOL     OW59248   6.401   0.572   7.773
18485SOL    HW159249   6.408   0.483   7.727
18485SOL    HW259250   6.307   0.606   7.765
18486SOL     OW59251   5.838   1.564   9.192
18486SOL    HW159252   5.808   1.621   9.268
18486SOL    HW259253   5.831   1.467   9.218
18487SOL     OW59254   6.257   0.464   8.717
18487SOL    HW159255   6.223   0.375   8.687
18487SOL    HW259256   6.283   0.518   8.637
18488SOL     OW59257   6.516   1.678   8.913
18488SOL    HW159258   6.492   1.660   8.818
18488SOL    HW259259   6.546   1.772   8.923
18489SOL     OW59260   6.059   0.500   7.639
18489SOL    HW159261   6.120   0.580   7.643
18489SOL    HW259262   5.964   0.531   7.646
18490SOL     OW59263   5.745   1.137   8.914
18490SOL    HW159264   5.767   1.076   8.990
18490SOL    HW259265   5.755   1.088   8.828
18491SOL     OW59266   6.933   1.059   8.682
18491SOL    HW159267   6.957   0.996   8.608
18491SOL    HW259268   6.843   1.099   8.664
18492SOL     OW59269   6.888   0.855   7.757
18492SOL    HW159270   6.802   0.824   7.799
18492SOL    HW259271   6.884   0.841   7.658
18493SOL     OW59272   6.838   1.731   8.576
18493SOL    HW159273   6.922   1.736   8.522
18493SOL    HW259274   6.815   1.635   8.594
18494SOL     OW59275   5.669   1.258   8.470
18494SOL    HW159276   5.664   1.257   8.570
18494SOL    HW259277   5.586   1.217   8.432
18495SOL     OW59278   6.274   1.662   9.164
18495SOL    HW159279   6.218   1.743   9.173
18495SOL    HW259280   6.326   1.666   9.078
18496SOL     OW59281   6.974   1.573   7.925
18496SOL    HW159282   7.041   1.585   7.851
18496SOL    HW259283   6.934   1.662   7.948
18497SOL     OW59284   5.716   1.794   9.299
18497SOL    HW159285   5.675   1.720   9.352
18497SOL    HW259286   5.780   1.845   9.357
18498SOL     OW59287   6.866   0.927   8.120
18498SOL    HW159288   6.926   0.846   8.122
18498SOL    HW259289   6.906   0.996   8.060
18499SOL     OW59290   6.416   1.273   8.870
18499SOL    HW159291   6.411   1.306   8.965
18499SOL    HW259292   6.330   1.292   8.824
18500SOL     OW59293   6.258   1.616   7.602
18500SOL    HW159294   6.267   1.626   7.503
18500SOL    HW259295   6.218   1.527   7.623
18501SOL     OW59296   7.427   0.175   8.411
18501SOL    HW159297   7.466   0.090   8.375
18501SOL    HW259298   7.329   0.177   8.392
18502SOL     OW59299   5.849   0.326   8.168
18502SOL    HW159300   5.770   0.377   8.134
18502SOL    HW259301   5.840   0.311   8.266
18503SOL     OW59302   6.780   1.612   7.479
18503SOL    HW159303   6.786   1.519   7.516
18503SOL    HW259304   6.721   1.612   7.399
18504SOL     OW59305   6.408   1.002   8.820
18504SOL    HW159306   6.448   1.001   8.728
18504SOL    HW259307   6.418   1.094   8.860
18505SOL     OW59308   6.502   0.910   7.739
18505SOL    HW159309   6.565   0.948   7.671
18505SOL    HW259310   6.542   0.827   7.778
18506SOL     OW59311   7.090   1.607   7.492
18506SOL    HW159312   6.998   1.644   7.499
18506SOL    HW259313   7.128   1.627   7.402
18507SOL     OW59314   5.958   1.288   8.938
18507SOL    HW159315   5.945   1.381   8.904
18507SOL    HW259316   5.874   1.236   8.925
18508SOL     OW59317   6.625   1.098   8.144
18508SOL    HW159318   6.555   1.051   8.198
18508SOL    HW259319   6.684   1.030   8.101
18509SOL     OW59320   5.841   1.348   7.738
18509SOL    HW159321   5.745   1.349   7.711
18509SOL    HW259322   5.853   1.401   7.822
18510SOL     OW59323   5.691   1.013   9.174
18510SOL    HW159324   5.614   0.980   9.228
18510SOL    HW259325   5.776   0.983   9.216
18511SOL     OW59326   6.258   0.203   8.937
18511SOL    HW159327   6.348   0.187   8.897
18511SOL    HW259328   6.266   0.208   9.036
18512SOL     OW59329   5.661   0.345   7.481
18512SOL    HW159330   5.569   0.317   7.452
18512SOL    HW259331   5.692   0.422   7.425
18513SOL     OW59332   7.026   0.856   8.846
18513SOL    HW159333   6.969   0.908   8.783
18513SOL    HW259334   7.122   0.868   8.822
18514SOL     OW59335   5.658   0.166   7.766
18514SOL    HW159336   5.641   0.249   7.712
18514SOL    HW259337   5.748   0.129   7.744
18515SOL     OW59338   6.769   1.335   7.567
18515SOL    HW159339   6.670   1.324   7.569
18515SOL    HW259340   6.803   1.350   7.660
18516SOL     OW59341   6.199   0.842   8.879
18516SOL    HW159342   6.255   0.923   8.862
18516SOL    HW259343   6.258   0.762   8.882
18517SOL     OW59344   6.302   0.565   9.156
18517SOL    HW159345   6.321   0.630   9.230
18517SOL    HW259346   6.362   0.485   9.165
18518SOL     OW59347   7.036   1.220   9.081
18518SOL    HW159348   7.027   1.210   9.180
18518SOL    HW259349   7.132   1.213   9.055
18519SOL     OW59350   5.976   1.741   9.008
18519SOL    HW159351   5.885   1.782   9.006
18519SOL    HW259352   5.969   1.647   9.040
18520SOL     OW59353   6.811   0.325   7.897
18520SOL    HW159354   6.876   0.251   7.886
18520SOL    HW259355   6.831   0.375   7.981
18521SOL     OW59356   6.180   0.745   8.100
18521SOL    HW159357   6.230   0.830   8.081
18521SOL    HW259358   6.092   0.747   8.052
18522SOL     OW59359   7.363   0.342   9.090
18522SOL    HW159360   7.346   0.373   8.996
18522SOL    HW259361   7.279   0.305   9.128
18523SOL     OW59362   7.316   0.934   8.965
18523SOL    HW159363   7.354   1.025   8.980
18523SOL    HW259364   7.308   0.917   8.866
18524SOL     OW59365   6.445   1.374   7.464
18524SOL    HW159366   6.399   1.389   7.552
18524SOL    HW259367   6.489   1.459   7.434
18525SOL     OW59368   6.247   1.790   8.401
18525SOL    HW159369   6.201   1.878   8.388
18525SOL    HW259370   6.346   1.802   8.394
18526SOL     OW59371   6.445   0.956   8.309
18526SOL    HW159372   6.499   0.887   8.357
18526SOL    HW259373   6.413   1.025   8.375
18527SOL     OW59374   6.669   0.984   7.535
18527SOL    HW159375   6.646   1.037   7.453
18527SOL    HW259376   6.750   0.928   7.516
18528SOL     OW59377   7.447   1.569   8.299
18528SOL    HW159378   7.376   1.557   8.229
18528SOL    HW259379   7.448   1.490   8.359
18529SOL     OW59380   5.807   1.314   9.292
18529SOL    HW159381   5.742   1.241   9.271
18529SOL    HW259382   5.811   1.328   9.390
18530SOL     OW59383   5.665   1.240   8.101
18530SOL    HW159384   5.664   1.193   8.189
18530SOL    HW259385   5.747   1.212   8.050
18531SOL     OW59386   6.258   1.391   9.072
18531SOL    HW159387   6.180   1.341   9.110
18531SOL    HW259388   6.255   1.486   9.103
18532SOL     OW59389   7.410   0.192   8.675
18532SOL    HW159390   7.406   0.102   8.719
18532SOL    HW259391   7.413   0.181   8.576
18533SOL     OW59392   6.014   0.424   7.968
18533SOL    HW159393   6.044   0.352   7.906
18533SOL    HW259394   5.975   0.384   8.051
18534SOL     OW59395   5.903   0.547   8.728
18534SOL    HW159396   5.941   0.488   8.800
18534SOL    HW259397   5.943   0.521   8.640
18535SOL     OW59398   6.356   1.330   7.749
18535SOL    HW159399   6.310   1.243   7.766
18535SOL    HW259400   6.447   1.327   7.790
18536SOL     OW59401   6.204   1.567   8.732
18536SOL    HW159402   6.199   1.649   8.789
18536SOL    HW259403   6.293   1.564   8.687
18537SOL     OW59404   6.938   0.052   7.616
18537SOL    HW159405   6.973   0.011   7.532
18537SOL    HW259406   6.848   0.014   7.636
18538SOL     OW59407   6.886   0.453   8.139
18538SOL    HW159408   6.827   0.533   8.143
18538SOL    HW259409   6.901   0.418   8.232
18539SOL     OW59410   5.625   1.077   7.748
18539SOL    HW159411   5.724   1.066   7.739
18539SOL    HW259412   5.585   0.991   7.780
18540SOL     OW59413   6.461   1.646   7.785
18540SOL    HW159414   6.384   1.611   7.731
18540SOL    HW259415   6.429   1.717   7.847
18541SOL     OW59416   5.816   0.628   9.423
18541SOL    HW159417   5.723   0.626   9.460
18541SOL    HW259418   5.817   0.589   9.331
18542SOL     OW59419   7.341   0.607   9.541
18542SOL    HW159420   7.329   0.594   9.442
18542SOL    HW259421   7.311   0.526   9.590
18543SOL     OW59422   5.817   1.713   9.793
18543SOL    HW159423   5.851   1.790   9.847
18543SOL    HW259424   5.861   1.713   9.703
18544SOL     OW59425   5.816   1.434   9.848
18544SOL    HW159426   5.790   1.530   9.848
18544SOL    HW259427   5.745   1.380   9.893
18545SOL     OW59428   5.708   0.643   9.873
18545SOL    HW159429   5.663   0.555   9.890
18545SOL    HW259430   5.707   0.697   9.957
18546SOL     OW59431   7.428   1.767   9.669
18546SOL    HW159432   7.482   1.738   9.749
18546SOL    HW259433   7.458   1.857   9.640
18547SOL     OW59434   5.613   1.596   9.427
18547SOL    HW159435   5.594   1.500   9.448
18547SOL    HW259436   5.580   1.654   9.502
18548SOL     OW59437   7.275   0.922   9.922
18548SOL    HW159438   7.370   0.893   9.930
18548SOL    HW259439   7.267   0.987   9.847
18549SOL     OW59440   7.227   1.108   9.742
18549SOL    HW159441   7.313   1.110   9.690
18549SOL    HW259442   7.241   1.155   9.830
18550SOL     OW59443   6.395   0.004   9.812
18550SOL    HW159444   6.435   0.095   9.803
18550SOL    HW259445   6.295   0.012   9.818
18551SOL     OW59446   7.111   0.999   9.500
18551SOL    HW159447   7.048   0.923   9.513
18551SOL    HW259448   7.159   1.017   9.586
18552SOL     OW59449   6.184   0.729   9.580
18552SOL    HW159450   6.208   0.798   9.512
18552SOL    HW259451   6.106   0.762   9.634
18553SOL     OW59452   7.162   1.662   9.617
18553SOL    HW159453   7.251   1.708   9.620
18553SOL    HW259454   7.141   1.638   9.522
18554SOL     OW59455   6.627   0.701   9.739
18554SOL    HW159456   6.653   0.697   9.835
18554SOL    HW259457   6.542   0.650   9.725
18555SOL     OW59458   5.662   0.811  10.099
18555SOL    HW159459   5.761   0.799  10.108
18555SOL    HW259460   5.638   0.906  10.120
18556SOL     OW59461   6.451   0.348   9.505
18556SOL    HW159462   6.510   0.411   9.456
18556SOL    HW259463   6.470   0.254   9.476
18557SOL     OW59464   5.937   1.801  10.163
18557SOL    HW159465   5.987   1.715  10.169
18557SOL    HW259466   6.002   1.878  10.160
18558SOL     OW59467   6.697   1.776   9.547
18558SOL    HW159468   6.637   1.714   9.597
18558SOL    HW259469   6.728   1.732   9.462
18559SOL     OW59470   7.218   1.377   9.391
18559SOL    HW159471   7.186   1.471   9.381
18559SOL    HW259472   7.142   1.314   9.379
18560SOL     OW59473   6.050   1.743   9.633
18560SOL    HW159474   6.083   1.782   9.719
18560SOL    HW259475   6.126   1.736   9.568
18561SOL     OW59476   6.986   0.107   9.736
18561SOL    HW159477   6.962   0.070   9.646
18561SOL    HW259478   7.085   0.123   9.740
18562SOL     OW59479   5.968   0.700   9.790
18562SOL    HW159480   6.013   0.610   9.787
18562SOL    HW259481   5.874   0.689   9.823
18563SOL     OW59482   6.200   0.122   9.427
18563SOL    HW159483   6.298   0.100   9.434
18563SOL    HW259484   6.169   0.105   9.334
18564SOL     OW59485   6.125   0.064   9.822
18564SOL    HW159486   6.044   0.065   9.880
18564SOL    HW259487   6.128   0.147   9.767
18565SOL     OW59488   5.883   0.035   9.481
18565SOL    HW159489   5.932   0.119   9.460
18565SOL    HW259490   5.945  -0.030   9.526
18566SOL     OW59491   6.521   0.236   9.790
18566SOL    HW159492   6.473   0.277   9.712
18566SOL    HW259493   6.620   0.234   9.771
18567SOL     OW59494   6.857   1.797   9.901
18567SOL    HW159495   6.901   1.861   9.837
18567SOL    HW259496   6.807   1.849   9.971
18568SOL     OW59497   6.618   0.549   9.326
18568SOL    HW159498   6.577   0.631   9.287
18568SOL    HW259499   6.682   0.575   9.399
18569SOL     OW59500   6.452   0.454   9.952
18569SOL    HW159501   6.420   0.526   9.890
18569SOL    HW259502   6.476   0.373   9.899
18570SOL     OW59503   7.443   0.833   9.687
18570SOL    HW159504   7.485   0.769   9.751
18570SOL    HW259505   7.405   0.782   9.609
18571SOL     OW59506   6.074   1.385   9.484
18571SOL    HW159507   5.987   1.370   9.531
18571SOL    HW259508   6.057   1.411   9.389
18572SOL     OW59509   6.976   0.575   9.388
18572SOL    HW159510   6.922   0.554   9.469
18572SOL    HW259511   7.067   0.534   9.397
18573SOL     OW59512   6.113   0.256   9.638
18573SOL    HW159513   6.140   0.197   9.563
18573SOL    HW259514   6.113   0.351   9.607
18574SOL     OW59515   7.168   0.639   9.782
18574SOL    HW159516   7.137   0.700   9.855
18574SOL    HW259517   7.218   0.691   9.713
18575SOL     OW59518   6.795   0.525   9.585
18575SOL    HW159519   6.808   0.441   9.639
18575SOL    HW259520   6.766   0.599   9.645
18576SOL     OW59521   5.893   0.063   9.928
18576SOL    HW159522   5.882   0.157   9.961
18576SOL    HW259523   5.888   0.000  10.005
18577SOL     OW59524   7.208   0.367   9.684
18577SOL    HW159525   7.210   0.291   9.748
18577SOL    HW259526   7.160   0.444   9.724
18578SOL     OW59527   7.126   0.274   9.435
18578SOL    HW159528   7.065   0.199   9.458
18578SOL    HW259529   7.148   0.326   9.518
18579SOL     OW59530   6.889   0.838   9.352
18579SOL    HW159531   6.923   0.745   9.367
18579SOL    HW259532   6.907   0.865   9.257
18580SOL     OW59533   6.401   0.572   9.635
18580SOL    HW159534   6.408   0.483   9.589
18580SOL    HW259535   6.307   0.606   9.627
18581SOL     OW59536   6.059   0.500   9.501
18581SOL    HW159537   6.120   0.580   9.505
18581SOL    HW259538   5.964   0.531   9.508
18582SOL     OW59539   6.888   0.855   9.619
18582SOL    HW159540   6.802   0.824   9.661
18582SOL    HW259541   6.884   0.841   9.520
18583SOL     OW59542   7.312   0.135   9.833
18583SOL    HW159543   7.385   0.118   9.766
18583SOL    HW259544   7.281   0.048   9.871
18584SOL     OW59545   6.258   1.616   9.464
18584SOL    HW159546   6.267   1.626   9.365
18584SOL    HW259547   6.218   1.527   9.485
18585SOL     OW59548   7.427   0.175  10.273
18585SOL    HW159549   7.466   0.090  10.237
18585SOL    HW259550   7.329   0.177  10.254
18586SOL     OW59551   6.780   1.612   9.341
18586SOL    HW159552   6.786   1.519   9.378
18586SOL    HW259553   6.721   1.612   9.261
18587SOL     OW59554   6.502   0.910   9.601
18587SOL    HW159555   6.565   0.948   9.533
18587SOL    HW259556   6.542   0.827   9.640
18588SOL     OW59557   7.090   1.607   9.354
18588SOL    HW159558   6.998   1.644   9.361
18588SOL    HW259559   7.128   1.627   9.264
18589SOL     OW59560   5.841   1.348   9.600
18589SOL    HW159561   5.745   1.349   9.573
18589SOL    HW259562   5.853   1.401   9.684
18590SOL     OW59563   5.661   0.345   9.343
18590SOL    HW159564   5.569   0.317   9.314
18590SOL    HW259565   5.692   0.422   9.287
18591SOL     OW59566   5.658   0.166   9.628
18591SOL    HW159567   5.641   0.249   9.574
18591SOL    HW259568   5.748   0.129   9.606
18592SOL     OW59569   6.811   0.325   9.759
18592SOL    HW159570   6.876   0.251   9.748
18592SOL    HW259571   6.831   0.375   9.843
18593SOL     OW59572   6.180   0.745   9.962
18593SOL    HW159573   6.230   0.830   9.943
18593SOL    HW259574   6.092   0.747   9.914
18594SOL     OW59575   6.445   1.374   9.326
18594SOL    HW159576   6.399   1.389   9.414
18594SOL    HW259577   6.489   1.459   9.296
18595SOL     OW59578   6.669   0.984   9.397
18595SOL    HW159579   6.646   1.037   9.315
18595SOL    HW259580   6.750   0.928   9.378
18596SOL     OW59581   5.665   1.240   9.963
18596SOL    HW159582   5.664   1.193  10.051
18596SOL    HW259583   5.747   1.212   9.912
18597SOL     OW59584   6.014   0.424   9.830
18597SOL    HW159585   6.044   0.352   9.768
18597SOL    HW259586   5.975   0.384   9.913
18598SOL     OW59587   6.356   1.330   9.611
18598SOL    HW159588   6.310   1.243   9.628
18598SOL    HW259589   6.447   1.327   9.652
18599SOL     OW59590   6.938   0.052   9.478
18599SOL    HW159591   6.973   0.011   9.394
18599SOL    HW259592   6.848   0.014   9.498
18600SOL     OW59593   5.625   1.077   9.610
18600SOL    HW159594   5.724   1.066   9.601
18600SOL    HW259595   5.585   0.991   9.642
18601SOL     OW59596   6.461   1.646   9.647
18601SOL    HW159597   6.384   1.611   9.593
18601SOL    HW259598   6.429   1.717   9.709
18602SOL     OW59599   5.816   2.490   0.113
18602SOL    HW159600   5.723   2.488   0.150
18602SOL    HW259601   5.817   2.451   0.021
18603SOL     OW59602   5.811   2.137   0.996
18603SOL    HW159603   5.846   2.120   1.088
18603SOL    HW259604   5.723   2.092   0.984
18604SOL     OW59605   5.605   2.230   0.647
18604SOL    HW159606   5.523   2.273   0.686
18604SOL    HW259607   5.577   2.157   0.584
18605SOL     OW59608   6.155   3.137   1.165
18605SOL    HW159609   6.062   3.130   1.128
18605SOL    HW259610   6.166   3.226   1.209
18606SOL     OW59611   7.141   3.373   0.703
18606SOL    HW159612   7.084   3.357   0.784
18606SOL    HW259613   7.082   3.383   0.623
18607SOL     OW59614   6.721   2.565   0.717
18607SOL    HW159615   6.778   2.643   0.692
18607SOL    HW259616   6.661   2.591   0.793
18608SOL     OW59617   7.341   2.469   0.231
18608SOL    HW159618   7.329   2.456   0.132
18608SOL    HW259619   7.311   2.388   0.280
18609SOL     OW59620   6.354   3.006   1.023
18609SOL    HW159621   6.276   3.023   1.083
18609SOL    HW259622   6.388   3.093   0.987
18610SOL     OW59623   6.436   2.660   1.823
18610SOL    HW159624   6.432   2.736   1.888
18610SOL    HW259625   6.458   2.696   1.732
18611SOL     OW59626   6.271   2.874   0.665
18611SOL    HW159627   6.340   2.858   0.735
18611SOL    HW259628   6.198   2.931   0.703
18612SOL     OW59629   6.272   3.023   1.803
18612SOL    HW159630   6.332   3.102   1.817
18612SOL    HW259631   6.186   3.054   1.762
18613SOL     OW59632   5.921   3.297   1.061
18613SOL    HW159633   5.843   3.266   1.008
18613SOL    HW259634   5.979   3.355   1.004
18614SOL     OW59635   7.046   3.367   1.339
18614SOL    HW159636   7.070   3.461   1.365
18614SOL    HW259637   7.030   3.313   1.421
18615SOL     OW59638   6.024   2.254   1.499
18615SOL    HW159639   6.106   2.198   1.508
18615SOL    HW259640   5.943   2.196   1.503
18616SOL     OW59641   7.189   2.309   0.737
18616SOL    HW159642   7.115   2.355   0.687
18616SOL    HW259643   7.240   2.377   0.790
18617SOL     OW59644   6.713   3.203   1.690
18617SOL    HW159645   6.760   3.203   1.778
18617SOL    HW259646   6.665   3.116   1.679
18618SOL     OW59647   5.826   2.953   0.886
18618SOL    HW159648   5.840   2.869   0.938
18618SOL    HW259649   5.771   3.017   0.941
18619SOL     OW59650   6.206   3.648   1.439
18619SOL    HW159651   6.114   3.631   1.474
18619SOL    HW259652   6.234   3.740   1.465
18620SOL     OW59653   6.192   2.826   0.123
18620SOL    HW159654   6.199   2.910   0.069
18620SOL    HW259655   6.238   2.839   0.211
18621SOL     OW59656   7.180   1.976   1.480
18621SOL    HW159657   7.162   2.043   1.408
18621SOL    HW259658   7.177   2.022   1.569
18622SOL     OW59659   5.708   2.505   0.563
18622SOL    HW159660   5.663   2.417   0.580
18622SOL    HW259661   5.707   2.559   0.647
18623SOL     OW59662   7.428   3.629   0.359
18623SOL    HW159663   7.482   3.600   0.439
18623SOL    HW259664   7.458   3.719   0.330
18624SOL     OW59665   7.275   2.784   0.612
18624SOL    HW159666   7.370   2.755   0.620
18624SOL    HW259667   7.267   2.849   0.537
18625SOL     OW59668   7.227   2.970   0.432
18625SOL    HW159669   7.313   2.972   0.380
18625SOL    HW259670   7.241   3.017   0.520
18626SOL     OW59671   5.699   2.599   1.597
18626SOL    HW159672   5.787   2.586   1.642
18626SOL    HW259673   5.686   2.696   1.575
18627SOL     OW59674   6.199   3.227   0.726
18627SOL    HW159675   6.150   3.140   0.735
18627SOL    HW259676   6.176   3.270   0.639
18628SOL     OW59677   6.879   3.090   1.423
18628SOL    HW159678   6.916   3.017   1.365
18628SOL    HW259679   6.931   3.095   1.508
18629SOL     OW59680   6.395   1.866   0.502
18629SOL    HW159681   6.435   1.957   0.493
18629SOL    HW259682   6.295   1.874   0.508
18630SOL     OW59683   5.783   2.838   1.264
18630SOL    HW159684   5.872   2.793   1.250
18630SOL    HW259685   5.710   2.773   1.245
18631SOL     OW59686   7.111   2.861   0.190
18631SOL    HW159687   7.048   2.785   0.203
18631SOL    HW259688   7.159   2.879   0.276
18632SOL     OW59689   6.773   3.654   1.616
18632SOL    HW159690   6.797   3.714   1.540
18632SOL    HW259691   6.780   3.559   1.586
18633SOL     OW59692   5.903   2.113   1.801
18633SOL    HW159693   5.974   2.184   1.807
18633SOL    HW259694   5.815   2.152   1.829
18634SOL     OW59695   7.052   3.279   0.953
18634SOL    HW159696   6.993   3.285   1.033
18634SOL    HW259697   7.037   3.191   0.907
18635SOL     OW59698   7.253   3.576   0.572
18635SOL    HW159699   7.212   3.553   0.484
18635SOL    HW259700   7.235   3.502   0.637
18636SOL     OW59701   6.184   2.591   0.270
18636SOL    HW159702   6.208   2.660   0.202
18636SOL    HW259703   6.106   2.624   0.324
18637SOL     OW59704   6.867   2.207   0.944
18637SOL    HW159705   6.781   2.157   0.931
18637SOL    HW259706   6.929   2.153   1.000
18638SOL     OW59707   7.162   3.524   0.307
18638SOL    HW159708   7.251   3.570   0.310
18638SOL    HW259709   7.141   3.500   0.212
18639SOL     OW59710   6.393   2.467   1.465
18639SOL    HW159711   6.346   2.464   1.554
18639SOL    HW259712   6.342   2.412   1.399
18640SOL     OW59713   6.980   2.331   1.674
18640SOL    HW159714   6.960   2.374   1.762
18640SOL    HW259715   7.058   2.269   1.683
18641SOL     OW59716   6.559   2.752   1.572
18641SOL    HW159717   6.605   2.668   1.543
18641SOL    HW259718   6.503   2.786   1.497
18642SOL     OW59719   6.577   2.272   1.242
18642SOL    HW159720   6.500   2.306   1.296
18642SOL    HW259721   6.543   2.221   1.163
18643SOL     OW59722   6.627   2.563   0.429
18643SOL    HW159723   6.653   2.559   0.525
18643SOL    HW259724   6.542   2.512   0.415
18644SOL     OW59725   5.662   2.673   0.789
18644SOL    HW159726   5.761   2.661   0.798
18644SOL    HW259727   5.638   2.768   0.810
18645SOL     OW59728   5.716   3.683   1.571
18645SOL    HW159729   5.706   3.668   1.670
18645SOL    HW259730   5.630   3.719   1.535
18646SOL     OW59731   6.451   2.210   0.195
18646SOL    HW159732   6.510   2.273   0.146
18646SOL    HW259733   6.470   2.116   0.166
18647SOL     OW59734   7.305   2.447   1.831
18647SOL    HW159735   7.279   2.536   1.795
18647SOL    HW259736   7.303   2.379   1.758
18648SOL     OW59737   6.948   3.006   0.545
18648SOL    HW159738   7.031   2.977   0.497
18648SOL    HW259739   6.899   3.073   0.489
18649SOL     OW59740   6.136   2.058   0.885
18649SOL    HW159741   6.131   2.053   0.985
18649SOL    HW259742   6.138   2.154   0.856
18650SOL     OW59743   5.937   3.663   0.853
18650SOL    HW159744   5.987   3.577   0.859
18650SOL    HW259745   6.002   3.740   0.850
18651SOL     OW59746   7.381   2.928   0.873
18651SOL    HW159747   7.319   2.913   0.797
18651SOL    HW259748   7.329   2.939   0.958
18652SOL     OW59749   6.813   3.412   1.506
18652SOL    HW159750   6.819   3.335   1.570
18652SOL    HW259751   6.761   3.386   1.426
18653SOL     OW59752   5.907   2.805   0.242
18653SOL    HW159753   5.989   2.844   0.200
18653SOL    HW259754   5.880   2.723   0.193
18654SOL     OW59755   7.044   2.597   0.728
18654SOL    HW159756   7.039   2.532   0.803
18654SOL    HW259757   7.124   2.656   0.741
18655SOL     OW59758   6.047   3.128   1.727
18655SOL    HW159759   5.997   3.129   1.641
18655SOL    HW259760   5.984   3.110   1.803
18656SOL     OW59761   6.697   3.638   0.237
18656SOL    HW159762   6.637   3.576   0.287
18656SOL    HW259763   6.728   3.594   0.152
18657SOL     OW59764   5.788   2.147   1.498
18657SOL    HW159765   5.708   2.207   1.485
18657SOL    HW259766   5.778   2.098   1.584
18658SOL     OW59767   7.218   3.239   0.081
18658SOL    HW159768   7.186   3.333   0.071
18658SOL    HW259769   7.142   3.176   0.069
18659SOL     OW59770   6.050   3.605   0.323
18659SOL    HW159771   6.083   3.644   0.409
18659SOL    HW259772   6.126   3.598   0.258
18660SOL     OW59773   5.835   3.647   1.241
18660SOL    HW159774   5.892   3.582   1.291
18660SOL    HW259775   5.819   3.614   1.148
18661SOL     OW59776   6.526   3.560   0.904
18661SOL    HW159777   6.606   3.503   0.925
18661SOL    HW259778   6.477   3.520   0.827
18662SOL     OW59779   5.968   2.562   0.480
18662SOL    HW159780   6.013   2.472   0.477
18662SOL    HW259781   5.874   2.551   0.513
18663SOL     OW59782   7.133   2.084   1.729
18663SOL    HW159783   7.128   2.121   1.821
18663SOL    HW259784   7.061   2.015   1.717
18664SOL     OW59785   6.200   1.984   0.117
18664SOL    HW159786   6.298   1.962   0.124
18664SOL    HW259787   6.169   1.967   0.024
18665SOL     OW59788   6.367   2.126   1.749
18665SOL    HW159789   6.434   2.065   1.792
18665SOL    HW259790   6.294   2.145   1.814
18666SOL     OW59791   6.474   3.376   1.195
18666SOL    HW159792   6.451   3.351   1.101
18666SOL    HW259793   6.535   3.307   1.234
18667SOL     OW59794   6.937   2.452   1.433
18667SOL    HW159795   6.965   2.409   1.518
18667SOL    HW259796   6.962   2.548   1.434
18668SOL     OW59797   6.389   3.264   0.924
18668SOL    HW159798   6.479   3.278   0.882
18668SOL    HW259799   6.318   3.266   0.853
18669SOL     OW59800   6.508   2.365   0.899
18669SOL    HW159801   6.483   2.356   0.803
18669SOL    HW259802   6.556   2.283   0.930
18670SOL     OW59803   6.125   1.926   0.512
18670SOL    HW159804   6.044   1.927   0.570
18670SOL    HW259805   6.128   2.009   0.457
18671SOL     OW59806   6.521   2.098   0.480
18671SOL    HW159807   6.473   2.139   0.402
18671SOL    HW259808   6.620   2.096   0.461
18672SOL     OW59809   6.662   2.545   1.464
18672SOL    HW159810   6.582   2.484   1.467
18672SOL    HW259811   6.743   2.492   1.440
18673SOL     OW59812   6.045   3.014   0.741
18673SOL    HW159813   5.974   2.987   0.806
18673SOL    HW259814   6.019   2.986   0.648
18674SOL     OW59815   6.618   2.411   0.016
18674SOL    HW159816   6.577   2.493  -0.023
18674SOL    HW259817   6.682   2.437   0.089
18675SOL     OW59818   5.664   2.418   1.386
18675SOL    HW159819   5.756   2.417   1.345
18675SOL    HW259820   5.658   2.492   1.453
18676SOL     OW59821   6.147   2.084   1.147
18676SOL    HW159822   6.185   2.000   1.184
18676SOL    HW259823   6.059   2.103   1.191
18677SOL     OW59824   6.452   2.316   0.642
18677SOL    HW159825   6.420   2.388   0.580
18677SOL    HW259826   6.476   2.235   0.589
18678SOL     OW59827   6.603   1.901   0.753
18678SOL    HW159828   6.531   1.906   0.684
18678SOL    HW259829   6.579   1.832   0.822
18679SOL     OW59830   7.015   3.035   0.867
18679SOL    HW159831   6.960   2.951   0.860
18679SOL    HW259832   7.041   3.064   0.775
18680SOL     OW59833   7.052   2.452   0.992
18680SOL    HW159834   7.022   2.357   0.999
18680SOL    HW259835   7.125   2.468   1.058
18681SOL     OW59836   7.443   2.695   0.377
18681SOL    HW159837   7.485   2.631   0.441
18681SOL    HW259838   7.405   2.644   0.299
18682SOL     OW59839   6.074   3.247   0.174
18682SOL    HW159840   5.987   3.232   0.221
18682SOL    HW259841   6.057   3.273   0.079
18683SOL     OW59842   7.250   3.142   0.657
18683SOL    HW159843   7.349   3.150   0.671
18683SOL    HW259844   7.205   3.226   0.688
18684SOL     OW59845   6.976   2.437   0.078
18684SOL    HW159846   6.922   2.416   0.159
18684SOL    HW259847   7.067   2.396   0.087
18685SOL     OW59848   6.113   2.118   0.328
18685SOL    HW159849   6.140   2.059   0.253
18685SOL    HW259850   6.113   2.213   0.297
18686SOL     OW59851   7.340   3.085   1.588
18686SOL    HW159852   7.431   3.046   1.575
18686SOL    HW259853   7.348   3.181   1.612
18687SOL     OW59854   6.650   3.209   1.340
18687SOL    HW159855   6.570   3.186   1.395
18687SOL    HW259856   6.733   3.183   1.389
18688SOL     OW59857   7.178   3.491   1.625
18688SOL    HW159858   7.205   3.525   1.535
18688SOL    HW259859   7.257   3.453   1.671
18689SOL     OW59860   6.697   3.057   1.100
18689SOL    HW159861   6.657   3.101   1.181
18689SOL    HW259862   6.656   3.094   1.017
18690SOL     OW59863   7.224   2.961   1.079
18690SOL    HW159864   7.229   3.042   1.138
18690SOL    HW259865   7.138   2.963   1.028
18691SOL     OW59866   6.501   1.951   1.402
18691SOL    HW159867   6.526   1.931   1.307
18691SOL    HW259868   6.573   2.007   1.444
18692SOL     OW59869   6.566   2.978   1.719
18692SOL    HW159870   6.467   2.984   1.729
18692SOL    HW259871   6.589   2.898   1.663
18693SOL     OW59872   6.291   2.912   0.368
18693SOL    HW159873   6.277   2.919   0.467
18693SOL    HW259874   6.375   2.861   0.350
18694SOL     OW59875   5.996   2.675   1.251
18694SOL    HW159876   6.082   2.687   1.301
18694SOL    HW259877   5.954   2.588   1.278
18695SOL     OW59878   6.860   2.248   1.262
18695SOL    HW159879   6.881   2.322   1.326
18695SOL    HW259880   6.771   2.265   1.219
18696SOL     OW59881   5.650   3.426   1.331
18696SOL    HW159882   5.604   3.508   1.297
18696SOL    HW259883   5.748   3.445   1.340
18697SOL     OW59884   5.953   2.962   0.501
18697SOL    HW159885   5.946   3.045   0.445
18697SOL    HW259886   5.957   2.882   0.441
18698SOL     OW59887   6.152   2.399   0.865
18698SOL    HW159888   6.164   2.465   0.791
18698SOL    HW259889   6.198   2.433   0.948
18699SOL     OW59890   6.838   3.210   0.388
18699SOL    HW159891   6.888   3.287   0.428
18699SOL    HW259892   6.743   3.212   0.420
18700SOL     OW59893   6.858   3.307   1.142
18700SOL    HW159894   6.905   3.320   1.229
18700SOL    HW259895   6.792   3.233   1.151
18701SOL     OW59896   7.168   2.501   0.472
18701SOL    HW159897   7.137   2.562   0.545
18701SOL    HW259898   7.218   2.553   0.403
18702SOL     OW59899   5.940   3.372   1.329
18702SOL    HW159900   5.919   3.328   1.242
18702SOL    HW259901   6.037   3.398   1.332
18703SOL     OW59902   5.988   2.613   1.598
18703SOL    HW159903   6.056   2.668   1.551
18703SOL    HW259904   6.028   2.525   1.625
18704SOL     OW59905   7.173   2.641   1.670
18704SOL    HW159906   7.081   2.679   1.665
18704SOL    HW259907   7.233   2.688   1.605
18705SOL     OW59908   6.599   1.967   1.770
18705SOL    HW159909   6.605   2.052   1.718
18705SOL    HW259910   6.631   1.891   1.713
18706SOL     OW59911   6.090   1.912   1.740
18706SOL    HW159912   6.048   1.855   1.670
18706SOL    HW259913   6.024   1.981   1.772
18707SOL     OW59914   6.159   2.732   1.029
18707SOL    HW159915   6.203   2.821   1.020
18707SOL    HW259916   6.096   2.732   1.106
18708SOL     OW59917   6.946   2.724   1.045
18708SOL    HW159918   6.871   2.724   0.979
18708SOL    HW259919   6.983   2.632   1.054
18709SOL     OW59920   6.795   2.387   0.275
18709SOL    HW159921   6.808   2.303   0.329
18709SOL    HW259922   6.766   2.461   0.335
18710SOL     OW59923   5.893   2.075   1.231
18710SOL    HW159924   5.870   2.112   1.321
18710SOL    HW259925   5.863   1.980   1.225
18711SOL     OW59926   5.623   3.172   1.282
18711SOL    HW159927   5.676   3.123   1.350
18711SOL    HW259928   5.645   3.270   1.287
18712SOL     OW59929   6.318   2.496   1.064
18712SOL    HW159930   6.377   2.470   0.988
18712SOL    HW259931   6.290   2.592   1.053
18713SOL     OW59932   7.314   2.797   1.854
18713SOL    HW159933   7.268   2.790   1.765
18713SOL    HW259934   7.252   2.841   1.920
18714SOL     OW59935   5.893   1.925   0.618
18714SOL    HW159936   5.882   2.019   0.651
18714SOL    HW259937   5.888   1.862   0.695
18715SOL     OW59938   7.208   2.229   0.374
18715SOL    HW159939   7.210   2.153   0.438
18715SOL    HW259940   7.160   2.306   0.414
18716SOL     OW59941   6.609   2.628   0.966
18716SOL    HW159942   6.624   2.649   1.062
18716SOL    HW259943   6.579   2.533   0.957
18717SOL     OW59944   6.566   3.435   1.700
18717SOL    HW159945   6.546   3.479   1.612
18717SOL    HW259946   6.605   3.344   1.684
18718SOL     OW59947   7.445   3.380   1.605
18718SOL    HW159948   7.459   3.407   1.510
18718SOL    HW259949   7.528   3.402   1.658
18719SOL     OW59950   5.936   2.760   1.804
18719SOL    HW159951   6.012   2.804   1.852
18719SOL    HW259952   5.971   2.713   1.722
18720SOL     OW59953   7.126   2.136   0.125
18720SOL    HW159954   7.065   2.061   0.148
18720SOL    HW259955   7.148   2.188   0.208
18721SOL     OW59956   6.889   2.700   0.042
18721SOL    HW159957   6.923   2.607   0.057
18721SOL    HW259958   6.907   2.727  -0.053
18722SOL     OW59959   6.654   3.195   0.849
18722SOL    HW159960   6.661   3.111   0.794
18722SOL    HW259961   6.716   3.264   0.813
18723SOL     OW59962   5.905   2.672   0.949
18723SOL    HW159963   5.998   2.708   0.954
18723SOL    HW259964   5.899   2.587   1.001
18724SOL     OW59965   5.925   2.371   1.006
18724SOL    HW159966   5.873   2.288   0.989
18724SOL    HW259967   6.002   2.376   0.942
18725SOL     OW59968   6.724   2.242   1.678
18725SOL    HW159969   6.679   2.305   1.742
18725SOL    HW259970   6.817   2.273   1.661
18726SOL     OW59971   6.746   2.069   1.477
18726SOL    HW159972   6.746   2.133   1.554
18726SOL    HW259973   6.774   2.117   1.394
18727SOL     OW59974   5.674   3.663   0.927
18727SOL    HW159975   5.632   3.577   0.900
18727SOL    HW259976   5.768   3.666   0.893
18728SOL     OW59977   6.090   3.430   0.910
18728SOL    HW159978   6.156   3.504   0.919
18728SOL    HW259979   6.134   3.351   0.868
18729SOL     OW59980   6.588   2.658   1.238
18729SOL    HW159981   6.629   2.626   1.324
18729SOL    HW259982   6.492   2.631   1.235
18730SOL     OW59983   5.626   2.406   1.114
18730SOL    HW159984   5.711   2.373   1.073
18730SOL    HW259985   5.639   2.421   1.212
18731SOL     OW59986   5.775   2.382   1.722
18731SOL    HW159987   5.834   2.342   1.652
18731SOL    HW259988   5.717   2.453   1.681
18732SOL     OW59989   6.955   2.812   1.660
18732SOL    HW159990   6.994   2.901   1.680
18732SOL    HW259991   6.965   2.792   1.563
18733SOL     OW59992   6.401   2.434   0.325
18733SOL    HW159993   6.408   2.345   0.279
18733SOL    HW259994   6.307   2.468   0.317
18734SOL     OW59995   7.243   2.466   1.206
18734SOL    HW159996   7.205   2.397   1.268
18734SOL    HW259997   7.325   2.430   1.162
18735SOL     OW59998   5.838   3.426   1.744
18735SOL    HW159999   5.808   3.483   1.820
18735SOL    HW260000   5.831   3.329   1.770
18736SOL     OW60001   6.257   2.326   1.269
18736SOL    HW160002   6.223   2.237   1.239
18736SOL    HW260003   6.283   2.380   1.189
18737SOL     OW60004   6.516   3.540   1.465
18737SOL    HW160005   6.492   3.522   1.370
18737SOL    HW260006   6.546   3.634   1.475
18738SOL     OW60007   6.059   2.362   0.191
18738SOL    HW160008   6.120   2.442   0.195
18738SOL    HW260009   5.964   2.393   0.198
18739SOL     OW60010   5.745   2.999   1.466
18739SOL    HW160011   5.767   2.938   1.542
18739SOL    HW260012   5.755   2.950   1.380
18740SOL     OW60013   6.933   2.921   1.234
18740SOL    HW160014   6.957   2.858   1.160
18740SOL    HW260015   6.843   2.961   1.216
18741SOL     OW60016   6.888   2.717   0.309
18741SOL    HW160017   6.802   2.686   0.351
18741SOL    HW260018   6.884   2.703   0.210
18742SOL     OW60019   7.345   3.609   1.154
18742SOL    HW160020   7.406   3.639   1.081
18742SOL    HW260021   7.307   3.520   1.132
18743SOL     OW60022   6.838   3.593   1.128
18743SOL    HW160023   6.922   3.598   1.074
18743SOL    HW260024   6.815   3.497   1.146
18744SOL     OW60025   5.669   3.120   1.022
18744SOL    HW160026   5.664   3.119   1.122
18744SOL    HW260027   5.586   3.079   0.984
18745SOL     OW60028   6.274   3.524   1.716
18745SOL    HW160029   6.218   3.605   1.725
18745SOL    HW260030   6.326   3.528   1.630
18746SOL     OW60031   6.489   1.948   0.133
18746SOL    HW160032   6.540   1.949   0.047
18746SOL    HW260033   6.545   1.906   0.204
18747SOL     OW60034   7.312   1.997   0.523
18747SOL    HW160035   7.385   1.980   0.456
18747SOL    HW260036   7.281   1.910   0.561
18748SOL     OW60037   5.716   3.656   1.851
18748SOL    HW160038   5.675   3.582   1.904
18748SOL    HW260039   5.780   3.707   1.909
18749SOL     OW60040   6.866   2.789   0.672
18749SOL    HW160041   6.926   2.708   0.674
18749SOL    HW260042   6.906   2.858   0.612
18750SOL     OW60043   6.416   3.135   1.422
18750SOL    HW160044   6.411   3.168   1.517
18750SOL    HW260045   6.330   3.154   1.376
18751SOL     OW60046   6.258   3.478   0.154
18751SOL    HW160047   6.267   3.488   0.055
18751SOL    HW260048   6.218   3.389   0.175
18752SOL     OW60049   7.236   3.582   1.394
18752SOL    HW160050   7.289   3.592   1.310
18752SOL    HW260051   7.209   3.672   1.428
18753SOL     OW60052   7.427   2.037   0.963
18753SOL    HW160053   7.466   1.952   0.927
18753SOL    HW260054   7.329   2.039   0.944
18754SOL     OW60055   5.849   2.188   0.720
18754SOL    HW160056   5.770   2.239   0.686
18754SOL    HW260057   5.840   2.173   0.818
18755SOL     OW60058   6.408   2.864   1.372
18755SOL    HW160059   6.448   2.863   1.280
18755SOL    HW260060   6.418   2.956   1.412
18756SOL     OW60061   6.502   2.772   0.291
18756SOL    HW160062   6.565   2.810   0.223
18756SOL    HW260063   6.542   2.689   0.330
18757SOL     OW60064   5.958   3.150   1.490
18757SOL    HW160065   5.945   3.243   1.456
18757SOL    HW260066   5.874   3.098   1.477
18758SOL     OW60067   7.200   3.154   1.289
18758SOL    HW160068   7.260   3.157   1.369
18758SOL    HW260069   7.125   3.218   1.302
18759SOL     OW60070   6.625   2.960   0.696
18759SOL    HW160071   6.555   2.913   0.750
18759SOL    HW260072   6.684   2.892   0.653
18760SOL     OW60073   6.600   2.098   0.971
18760SOL    HW160074   6.592   2.062   0.878
18760SOL    HW260075   6.598   2.022   1.036
18761SOL     OW60076   6.176   3.349   0.491
18761SOL    HW160077   6.218   3.291   0.421
18761SOL    HW260078   6.132   3.428   0.447
18762SOL     OW60079   7.295   2.247   1.381
18762SOL    HW160080   7.368   2.316   1.385
18762SOL    HW260081   7.323   2.172   1.322
18763SOL     OW60082   5.691   2.875   1.726
18763SOL    HW160083   5.614   2.842   1.780
18763SOL    HW260084   5.776   2.845   1.768
18764SOL     OW60085   6.258   2.065   1.489
18764SOL    HW160086   6.348   2.049   1.449
18764SOL    HW260087   6.266   2.070   1.588
18765SOL     OW60088   5.661   2.207   0.033
18765SOL    HW160089   5.569   2.179   0.004
18765SOL    HW260090   5.692   2.284  -0.023
18766SOL     OW60091   7.026   2.718   1.398
18766SOL    HW160092   6.969   2.770   1.335
18766SOL    HW260093   7.122   2.730   1.374
18767SOL     OW60094   5.658   2.028   0.318
18767SOL    HW160095   5.641   2.111   0.264
18767SOL    HW260096   5.748   1.991   0.296
18768SOL     OW60097   6.769   3.197   0.119
18768SOL    HW160098   6.670   3.186   0.121
18768SOL    HW260099   6.803   3.212   0.212
18769SOL     OW60100   6.199   2.704   1.431
18769SOL    HW160101   6.255   2.785   1.414
18769SOL    HW260102   6.258   2.624   1.434
18770SOL     OW60103   7.079   3.629   0.959
18770SOL    HW160104   7.112   3.693   0.890
18770SOL    HW260105   7.145   3.623   1.034
18771SOL     OW60106   6.302   2.427   1.708
18771SOL    HW160107   6.321   2.492   1.782
18771SOL    HW260108   6.362   2.347   1.717
18772SOL     OW60109   7.036   3.082   1.633
18772SOL    HW160110   7.027   3.072   1.732
18772SOL    HW260111   7.132   3.075   1.607
18773SOL     OW60112   5.976   3.603   1.560
18773SOL    HW160113   5.885   3.644   1.558
18773SOL    HW260114   5.969   3.509   1.592
18774SOL     OW60115   7.260   2.745   1.254
18774SOL    HW160116   7.233   2.656   1.217
18774SOL    HW260117   7.261   2.813   1.181
18775SOL     OW60118   6.180   2.607   0.652
18775SOL    HW160119   6.230   2.692   0.633
18775SOL    HW260120   6.092   2.609   0.604
18776SOL     OW60121   7.363   2.204   1.642
18776SOL    HW160122   7.346   2.235   1.548
18776SOL    HW260123   7.279   2.167   1.680
18777SOL     OW60124   7.316   2.796   1.517
18777SOL    HW160125   7.354   2.887   1.532
18777SOL    HW260126   7.308   2.779   1.418
18778SOL     OW60127   6.445   3.236   0.016
18778SOL    HW160128   6.399   3.251   0.104
18778SOL    HW260129   6.489   3.321  -0.014
18779SOL     OW60130   6.247   3.652   0.953
18779SOL    HW160131   6.201   3.740   0.940
18779SOL    HW260132   6.346   3.664   0.946
18780SOL     OW60133   6.445   2.818   0.861
18780SOL    HW160134   6.499   2.749   0.909
18780SOL    HW260135   6.413   2.887   0.927
18781SOL     OW60136   6.669   2.846   0.087
18781SOL    HW160137   6.646   2.899   0.005
18781SOL    HW260138   6.750   2.790   0.068
18782SOL     OW60139   7.447   3.431   0.851
18782SOL    HW160140   7.376   3.419   0.781
18782SOL    HW260141   7.448   3.352   0.911
18783SOL     OW60142   5.807   3.176   1.844
18783SOL    HW160143   5.742   3.103   1.823
18783SOL    HW260144   5.811   3.190   1.942
18784SOL     OW60145   5.665   3.102   0.653
18784SOL    HW160146   5.664   3.055   0.741
18784SOL    HW260147   5.747   3.074   0.602
18785SOL     OW60148   6.258   3.253   1.624
18785SOL    HW160149   6.180   3.203   1.662
18785SOL    HW260150   6.255   3.348   1.655
18786SOL     OW60151   7.410   2.054   1.227
18786SOL    HW160152   7.406   1.964   1.271
18786SOL    HW260153   7.413   2.043   1.128
18787SOL     OW60154   6.014   2.286   0.520
18787SOL    HW160155   6.044   2.214   0.458
18787SOL    HW260156   5.975   2.246   0.603
18788SOL     OW60157   7.291   3.349   1.104
18788SOL    HW160158   7.198   3.324   1.077
18788SOL    HW260159   7.317   3.299   1.186
18789SOL     OW60160   5.903   2.409   1.280
18789SOL    HW160161   5.941   2.350   1.352
18789SOL    HW260162   5.943   2.383   1.192
18790SOL     OW60163   6.398   3.448   0.687
18790SOL    HW160164   6.430   3.458   0.593
18790SOL    HW260165   6.319   3.386   0.689
18791SOL     OW60166   7.010   2.076   1.112
18791SOL    HW160167   7.062   2.011   1.167
18791SOL    HW260168   6.961   2.139   1.173
18792SOL     OW60169   6.587   1.896   1.154
18792SOL    HW160170   6.524   1.824   1.123
18792SOL    HW260171   6.680   1.860   1.154
18793SOL     OW60172   6.356   3.192   0.301
18793SOL    HW160173   6.310   3.105   0.318
18793SOL    HW260174   6.447   3.189   0.342
18794SOL     OW60175   6.204   3.429   1.284
18794SOL    HW160176   6.199   3.511   1.341
18794SOL    HW260177   6.293   3.426   1.239
18795SOL     OW60178   6.938   1.914   0.168
18795SOL    HW160179   6.973   1.873   0.084
18795SOL    HW260180   6.848   1.876   0.188
18796SOL     OW60181   6.886   2.315   0.691
18796SOL    HW160182   6.827   2.395   0.695
18796SOL    HW260183   6.901   2.280   0.784
18797SOL     OW60184   7.179   2.083   0.882
18797SOL    HW160185   7.095   2.082   0.936
18797SOL    HW260186   7.181   2.166   0.826
18798SOL     OW60187   5.625   2.939   0.300
18798SOL    HW160188   5.724   2.928   0.291
18798SOL    HW260189   5.585   2.853   0.332
18799SOL     OW60190   6.461   3.508   0.337
18799SOL    HW160191   6.384   3.473   0.283
18799SOL    HW260192   6.429   3.579   0.399
18800SOL     OW60193   5.816   2.490   1.975
18800SOL    HW160194   5.723   2.488   2.012
18800SOL    HW260195   5.817   2.451   1.883
18801SOL     OW60196   5.811   2.137   2.858
18801SOL    HW160197   5.846   2.120   2.950
18801SOL    HW260198   5.723   2.092   2.846
18802SOL     OW60199   5.605   2.230   2.509
18802SOL    HW160200   5.523   2.273   2.548
18802SOL    HW260201   5.577   2.157   2.446
18803SOL     OW60202   6.155   3.137   3.027
18803SOL    HW160203   6.062   3.130   2.990
18803SOL    HW260204   6.166   3.226   3.071
18804SOL     OW60205   7.141   3.373   2.565
18804SOL    HW160206   7.084   3.357   2.646
18804SOL    HW260207   7.082   3.383   2.485
18805SOL     OW60208   6.721   2.565   2.579
18805SOL    HW160209   6.778   2.643   2.554
18805SOL    HW260210   6.661   2.591   2.655
18806SOL     OW60211   7.341   2.469   2.093
18806SOL    HW160212   7.329   2.456   1.994
18806SOL    HW260213   7.311   2.388   2.142
18807SOL     OW60214   6.354   3.006   2.885
18807SOL    HW160215   6.276   3.023   2.945
18807SOL    HW260216   6.388   3.093   2.849
18808SOL     OW60217   6.436   2.660   3.685
18808SOL    HW160218   6.432   2.736   3.750
18808SOL    HW260219   6.458   2.696   3.594
18809SOL     OW60220   6.271   2.874   2.527
18809SOL    HW160221   6.340   2.858   2.597
18809SOL    HW260222   6.198   2.931   2.565
18810SOL     OW60223   6.272   3.023   3.665
18810SOL    HW160224   6.332   3.102   3.679
18810SOL    HW260225   6.186   3.054   3.624
18811SOL     OW60226   5.921   3.297   2.923
18811SOL    HW160227   5.843   3.266   2.870
18811SOL    HW260228   5.979   3.355   2.866
18812SOL     OW60229   7.046   3.367   3.201
18812SOL    HW160230   7.070   3.461   3.227
18812SOL    HW260231   7.030   3.313   3.283
18813SOL     OW60232   6.024   2.254   3.361
18813SOL    HW160233   6.106   2.198   3.370
18813SOL    HW260234   5.943   2.196   3.365
18814SOL     OW60235   7.189   2.309   2.599
18814SOL    HW160236   7.115   2.355   2.549
18814SOL    HW260237   7.240   2.377   2.652
18815SOL     OW60238   5.817   3.575   2.345
18815SOL    HW160239   5.851   3.652   2.399
18815SOL    HW260240   5.861   3.575   2.255
18816SOL     OW60241   6.713   3.203   3.552
18816SOL    HW160242   6.760   3.203   3.640
18816SOL    HW260243   6.665   3.116   3.541
18817SOL     OW60244   5.816   3.296   2.400
18817SOL    HW160245   5.790   3.392   2.400
18817SOL    HW260246   5.745   3.242   2.445
18818SOL     OW60247   5.826   2.953   2.748
18818SOL    HW160248   5.840   2.869   2.800
18818SOL    HW260249   5.771   3.017   2.803
18819SOL     OW60250   6.206   3.648   3.301
18819SOL    HW160251   6.114   3.631   3.336
18819SOL    HW260252   6.234   3.740   3.327
18820SOL     OW60253   6.192   2.826   1.985
18820SOL    HW160254   6.199   2.910   1.931
18820SOL    HW260255   6.238   2.839   2.073
18821SOL     OW60256   7.180   1.976   3.342
18821SOL    HW160257   7.162   2.043   3.270
18821SOL    HW260258   7.177   2.022   3.431
18822SOL     OW60259   5.708   2.505   2.425
18822SOL    HW160260   5.663   2.417   2.442
18822SOL    HW260261   5.707   2.559   2.509
18823SOL     OW60262   7.428   3.629   2.221
18823SOL    HW160263   7.482   3.600   2.301
18823SOL    HW260264   7.458   3.719   2.192
18824SOL     OW60265   5.613   3.458   1.979
18824SOL    HW160266   5.594   3.362   2.000
18824SOL    HW260267   5.580   3.516   2.054
18825SOL     OW60268   7.275   2.784   2.474
18825SOL    HW160269   7.370   2.755   2.482
18825SOL    HW260270   7.267   2.849   2.399
18826SOL     OW60271   7.227   2.970   2.294
18826SOL    HW160272   7.313   2.972   2.242
18826SOL    HW260273   7.241   3.017   2.382
18827SOL     OW60274   5.699   2.599   3.459
18827SOL    HW160275   5.787   2.586   3.504
18827SOL    HW260276   5.686   2.696   3.437
18828SOL     OW60277   6.199   3.227   2.588
18828SOL    HW160278   6.150   3.140   2.597
18828SOL    HW260279   6.176   3.270   2.501
18829SOL     OW60280   6.879   3.090   3.285
18829SOL    HW160281   6.916   3.017   3.227
18829SOL    HW260282   6.931   3.095   3.370
18830SOL     OW60283   6.395   1.866   2.364
18830SOL    HW160284   6.435   1.957   2.355
18830SOL    HW260285   6.295   1.874   2.370
18831SOL     OW60286   5.783   2.838   3.126
18831SOL    HW160287   5.872   2.793   3.112
18831SOL    HW260288   5.710   2.773   3.107
18832SOL     OW60289   7.111   2.861   2.052
18832SOL    HW160290   7.048   2.785   2.065
18832SOL    HW260291   7.159   2.879   2.138
18833SOL     OW60292   6.773   3.654   3.478
18833SOL    HW160293   6.797   3.714   3.402
18833SOL    HW260294   6.780   3.559   3.448
18834SOL     OW60295   5.903   2.113   3.663
18834SOL    HW160296   5.974   2.184   3.669
18834SOL    HW260297   5.815   2.152   3.691
18835SOL     OW60298   7.052   3.279   2.815
18835SOL    HW160299   6.993   3.285   2.895
18835SOL    HW260300   7.037   3.191   2.769
18836SOL     OW60301   7.253   3.576   2.434
18836SOL    HW160302   7.212   3.553   2.346
18836SOL    HW260303   7.235   3.502   2.499
18837SOL     OW60304   6.184   2.591   2.132
18837SOL    HW160305   6.208   2.660   2.064
18837SOL    HW260306   6.106   2.624   2.186
18838SOL     OW60307   6.867   2.207   2.806
18838SOL    HW160308   6.781   2.157   2.793
18838SOL    HW260309   6.929   2.153   2.862
18839SOL     OW60310   7.162   3.524   2.169
18839SOL    HW160311   7.251   3.570   2.172
18839SOL    HW260312   7.141   3.500   2.074
18840SOL     OW60313   6.393   2.467   3.327
18840SOL    HW160314   6.346   2.464   3.416
18840SOL    HW260315   6.342   2.412   3.261
18841SOL     OW60316   6.980   2.331   3.536
18841SOL    HW160317   6.960   2.374   3.624
18841SOL    HW260318   7.058   2.269   3.545
18842SOL     OW60319   6.559   2.752   3.434
18842SOL    HW160320   6.605   2.668   3.405
18842SOL    HW260321   6.503   2.786   3.359
18843SOL     OW60322   6.577   2.272   3.104
18843SOL    HW160323   6.500   2.306   3.158
18843SOL    HW260324   6.543   2.221   3.025
18844SOL     OW60325   6.627   2.563   2.291
18844SOL    HW160326   6.653   2.559   2.387
18844SOL    HW260327   6.542   2.512   2.277
18845SOL     OW60328   5.662   2.673   2.651
18845SOL    HW160329   5.761   2.661   2.660
18845SOL    HW260330   5.638   2.768   2.672
18846SOL     OW60331   5.716   3.683   3.433
18846SOL    HW160332   5.706   3.668   3.532
18846SOL    HW260333   5.630   3.719   3.397
18847SOL     OW60334   6.451   2.210   2.057
18847SOL    HW160335   6.510   2.273   2.008
18847SOL    HW260336   6.470   2.116   2.028
18848SOL     OW60337   7.305   2.447   3.693
18848SOL    HW160338   7.279   2.536   3.657
18848SOL    HW260339   7.303   2.379   3.620
18849SOL     OW60340   6.948   3.006   2.407
18849SOL    HW160341   7.031   2.977   2.359
18849SOL    HW260342   6.899   3.073   2.351
18850SOL     OW60343   6.136   2.058   2.747
18850SOL    HW160344   6.131   2.053   2.847
18850SOL    HW260345   6.138   2.154   2.718
18851SOL     OW60346   6.594   3.318   2.339
18851SOL    HW160347   6.548   3.390   2.287
18851SOL    HW260348   6.590   3.338   2.437
18852SOL     OW60349   5.937   3.663   2.715
18852SOL    HW160350   5.987   3.577   2.721
18852SOL    HW260351   6.002   3.740   2.712
18853SOL     OW60352   7.381   2.928   2.735
18853SOL    HW160353   7.319   2.913   2.659
18853SOL    HW260354   7.329   2.939   2.820
18854SOL     OW60355   6.813   3.412   3.368
18854SOL    HW160356   6.819   3.335   3.432
18854SOL    HW260357   6.761   3.386   3.288
18855SOL     OW60358   5.907   2.805   2.104
18855SOL    HW160359   5.989   2.844   2.062
18855SOL    HW260360   5.880   2.723   2.055
18856SOL     OW60361   7.044   2.597   2.590
18856SOL    HW160362   7.039   2.532   2.665
18856SOL    HW260363   7.124   2.656   2.603
18857SOL     OW60364   6.047   3.128   3.589
18857SOL    HW160365   5.997   3.129   3.503
18857SOL    HW260366   5.984   3.110   3.665
18858SOL     OW60367   6.697   3.638   2.099
18858SOL    HW160368   6.637   3.576   2.149
18858SOL    HW260369   6.728   3.594   2.014
18859SOL     OW60370   5.788   2.147   3.360
18859SOL    HW160371   5.708   2.207   3.347
18859SOL    HW260372   5.778   2.098   3.446
18860SOL     OW60373   7.218   3.239   1.943
18860SOL    HW160374   7.186   3.333   1.933
18860SOL    HW260375   7.142   3.176   1.931
18861SOL     OW60376   6.050   3.605   2.185
18861SOL    HW160377   6.083   3.644   2.271
18861SOL    HW260378   6.126   3.598   2.120
18862SOL     OW60379   6.986   1.969   2.288
18862SOL    HW160380   6.962   1.932   2.198
18862SOL    HW260381   7.085   1.985   2.292
18863SOL     OW60382   5.835   3.647   3.103
18863SOL    HW160383   5.892   3.582   3.153
18863SOL    HW260384   5.819   3.614   3.010
18864SOL     OW60385   6.526   3.560   2.766
18864SOL    HW160386   6.606   3.503   2.787
18864SOL    HW260387   6.477   3.520   2.689
18865SOL     OW60388   5.968   2.562   2.342
18865SOL    HW160389   6.013   2.472   2.339
18865SOL    HW260390   5.874   2.551   2.375
18866SOL     OW60391   7.133   2.084   3.591
18866SOL    HW160392   7.128   2.121   3.683
18866SOL    HW260393   7.061   2.015   3.579
18867SOL     OW60394   6.200   1.984   1.979
18867SOL    HW160395   6.298   1.962   1.986
18867SOL    HW260396   6.169   1.967   1.886
18868SOL     OW60397   6.367   2.126   3.611
18868SOL    HW160398   6.434   2.065   3.654
18868SOL    HW260399   6.294   2.145   3.676
18869SOL     OW60400   6.474   3.376   3.057
18869SOL    HW160401   6.451   3.351   2.963
18869SOL    HW260402   6.535   3.307   3.096
18870SOL     OW60403   6.937   2.452   3.295
18870SOL    HW160404   6.965   2.409   3.380
18870SOL    HW260405   6.962   2.548   3.296
18871SOL     OW60406   6.389   3.264   2.786
18871SOL    HW160407   6.479   3.278   2.744
18871SOL    HW260408   6.318   3.266   2.715
18872SOL     OW60409   6.508   2.365   2.761
18872SOL    HW160410   6.483   2.356   2.665
18872SOL    HW260411   6.556   2.283   2.792
18873SOL     OW60412   6.125   1.926   2.374
18873SOL    HW160413   6.044   1.927   2.432
18873SOL    HW260414   6.128   2.009   2.319
18874SOL     OW60415   7.020   3.050   1.903
18874SOL    HW160416   7.052   2.974   1.960
18874SOL    HW260417   6.928   3.077   1.933
18875SOL     OW60418   5.883   1.897   2.033
18875SOL    HW160419   5.932   1.981   2.012
18875SOL    HW260420   5.945   1.832   2.078
18876SOL     OW60421   6.521   2.098   2.342
18876SOL    HW160422   6.473   2.139   2.264
18876SOL    HW260423   6.620   2.096   2.323
18877SOL     OW60424   6.662   2.545   3.326
18877SOL    HW160425   6.582   2.484   3.329
18877SOL    HW260426   6.743   2.492   3.302
18878SOL     OW60427   6.813   3.432   2.655
18878SOL    HW160428   6.834   3.506   2.590
18878SOL    HW260429   6.881   3.432   2.728
18879SOL     OW60430   6.045   3.014   2.603
18879SOL    HW160431   5.974   2.987   2.668
18879SOL    HW260432   6.019   2.986   2.510
18880SOL     OW60433   6.857   3.659   2.453
18880SOL    HW160434   6.901   3.723   2.389
18880SOL    HW260435   6.807   3.711   2.523
18881SOL     OW60436   6.618   2.411   1.878
18881SOL    HW160437   6.577   2.493   1.839
18881SOL    HW260438   6.682   2.437   1.951
18882SOL     OW60439   5.664   2.418   3.248
18882SOL    HW160440   5.756   2.417   3.207
18882SOL    HW260441   5.658   2.492   3.315
18883SOL     OW60442   6.147   2.084   3.009
18883SOL    HW160443   6.185   2.000   3.046
18883SOL    HW260444   6.059   2.103   3.053
18884SOL     OW60445   6.452   2.316   2.504
18884SOL    HW160446   6.420   2.388   2.442
18884SOL    HW260447   6.476   2.235   2.451
18885SOL     OW60448   6.603   1.901   2.615
18885SOL    HW160449   6.531   1.906   2.546
18885SOL    HW260450   6.579   1.832   2.684
18886SOL     OW60451   7.015   3.035   2.729
18886SOL    HW160452   6.960   2.951   2.722
18886SOL    HW260453   7.041   3.064   2.637
18887SOL     OW60454   7.052   2.452   2.854
18887SOL    HW160455   7.022   2.357   2.861
18887SOL    HW260456   7.125   2.468   2.920
18888SOL     OW60457   7.443   2.695   2.239
18888SOL    HW160458   7.485   2.631   2.303
18888SOL    HW260459   7.405   2.644   2.161
18889SOL     OW60460   6.074   3.247   2.036
18889SOL    HW160461   5.987   3.232   2.083
18889SOL    HW260462   6.057   3.273   1.941
18890SOL     OW60463   7.250   3.142   2.519
18890SOL    HW160464   7.349   3.150   2.533
18890SOL    HW260465   7.205   3.226   2.550
18891SOL     OW60466   6.976   2.437   1.940
18891SOL    HW160467   6.922   2.416   2.021
18891SOL    HW260468   7.067   2.396   1.949
18892SOL     OW60469   6.113   2.118   2.190
18892SOL    HW160470   6.140   2.059   2.115
18892SOL    HW260471   6.113   2.213   2.159
18893SOL     OW60472   7.340   3.085   3.450
18893SOL    HW160473   7.431   3.046   3.437
18893SOL    HW260474   7.348   3.181   3.474
18894SOL     OW60475   6.650   3.209   3.202
18894SOL    HW160476   6.570   3.186   3.257
18894SOL    HW260477   6.733   3.183   3.251
18895SOL     OW60478   7.178   3.491   3.487
18895SOL    HW160479   7.205   3.525   3.397
18895SOL    HW260480   7.257   3.453   3.533
18896SOL     OW60481   6.697   3.057   2.962
18896SOL    HW160482   6.657   3.101   3.043
18896SOL    HW260483   6.656   3.094   2.879
18897SOL     OW60484   7.224   2.961   2.941
18897SOL    HW160485   7.229   3.042   3.000
18897SOL    HW260486   7.138   2.963   2.890
18898SOL     OW60487   6.501   1.951   3.264
18898SOL    HW160488   6.526   1.931   3.169
18898SOL    HW260489   6.573   2.007   3.306
18899SOL     OW60490   6.566   2.978   3.581
18899SOL    HW160491   6.467   2.984   3.591
18899SOL    HW260492   6.589   2.898   3.525
18900SOL     OW60493   6.291   2.912   2.230
18900SOL    HW160494   6.277   2.919   2.329
18900SOL    HW260495   6.375   2.861   2.212
18901SOL     OW60496   5.996   2.675   3.113
18901SOL    HW160497   6.082   2.687   3.163
18901SOL    HW260498   5.954   2.588   3.140
18902SOL     OW60499   6.860   2.248   3.124
18902SOL    HW160500   6.881   2.322   3.188
18902SOL    HW260501   6.771   2.265   3.081
18903SOL     OW60502   5.650   3.426   3.193
18903SOL    HW160503   5.604   3.508   3.159
18903SOL    HW260504   5.748   3.445   3.202
18904SOL     OW60505   5.953   2.962   2.363
18904SOL    HW160506   5.946   3.045   2.307
18904SOL    HW260507   5.957   2.882   2.303
18905SOL     OW60508   6.152   2.399   2.727
18905SOL    HW160509   6.164   2.465   2.653
18905SOL    HW260510   6.198   2.433   2.810
18906SOL     OW60511   6.838   3.210   2.250
18906SOL    HW160512   6.888   3.287   2.290
18906SOL    HW260513   6.743   3.212   2.282
18907SOL     OW60514   6.858   3.307   3.004
18907SOL    HW160515   6.905   3.320   3.091
18907SOL    HW260516   6.792   3.233   3.013
18908SOL     OW60517   7.168   2.501   2.334
18908SOL    HW160518   7.137   2.562   2.407
18908SOL    HW260519   7.218   2.553   2.265
18909SOL     OW60520   5.940   3.372   3.191
18909SOL    HW160521   5.919   3.328   3.104
18909SOL    HW260522   6.037   3.398   3.194
18910SOL     OW60523   5.988   2.613   3.460
18910SOL    HW160524   6.056   2.668   3.413
18910SOL    HW260525   6.028   2.525   3.487
18911SOL     OW60526   7.173   2.641   3.532
18911SOL    HW160527   7.081   2.679   3.527
18911SOL    HW260528   7.233   2.688   3.467
18912SOL     OW60529   6.599   1.967   3.632
18912SOL    HW160530   6.605   2.052   3.580
18912SOL    HW260531   6.631   1.891   3.575
18913SOL     OW60532   6.090   1.912   3.602
18913SOL    HW160533   6.048   1.855   3.532
18913SOL    HW260534   6.024   1.981   3.634
18914SOL     OW60535   6.159   2.732   2.891
18914SOL    HW160536   6.203   2.821   2.882
18914SOL    HW260537   6.096   2.732   2.968
18915SOL     OW60538   6.946   2.724   2.907
18915SOL    HW160539   6.871   2.724   2.841
18915SOL    HW260540   6.983   2.632   2.916
18916SOL     OW60541   6.795   2.387   2.137
18916SOL    HW160542   6.808   2.303   2.191
18916SOL    HW260543   6.766   2.461   2.197
18917SOL     OW60544   5.893   2.075   3.093
18917SOL    HW160545   5.870   2.112   3.183
18917SOL    HW260546   5.863   1.980   3.087
18918SOL     OW60547   5.623   3.172   3.144
18918SOL    HW160548   5.676   3.123   3.212
18918SOL    HW260549   5.645   3.270   3.149
18919SOL     OW60550   6.318   2.496   2.926
18919SOL    HW160551   6.377   2.470   2.850
18919SOL    HW260552   6.290   2.592   2.915
18920SOL     OW60553   7.314   2.797   3.716
18920SOL    HW160554   7.268   2.790   3.627
18920SOL    HW260555   7.252   2.841   3.782
18921SOL     OW60556   5.893   1.925   2.480
18921SOL    HW160557   5.882   2.019   2.513
18921SOL    HW260558   5.888   1.862   2.557
18922SOL     OW60559   7.208   2.229   2.236
18922SOL    HW160560   7.210   2.153   2.300
18922SOL    HW260561   7.160   2.306   2.276
18923SOL     OW60562   6.609   2.628   2.828
18923SOL    HW160563   6.624   2.649   2.924
18923SOL    HW260564   6.579   2.533   2.819
18924SOL     OW60565   6.566   3.435   3.562
18924SOL    HW160566   6.546   3.479   3.474
18924SOL    HW260567   6.605   3.344   3.546
18925SOL     OW60568   7.445   3.380   3.467
18925SOL    HW160569   7.459   3.407   3.372
18925SOL    HW260570   7.528   3.402   3.520
18926SOL     OW60571   5.936   2.760   3.666
18926SOL    HW160572   6.012   2.804   3.714
18926SOL    HW260573   5.971   2.713   3.584
18927SOL     OW60574   7.126   2.136   1.987
18927SOL    HW160575   7.065   2.061   2.010
18927SOL    HW260576   7.148   2.188   2.070
18928SOL     OW60577   6.889   2.700   1.904
18928SOL    HW160578   6.923   2.607   1.919
18928SOL    HW260579   6.907   2.727   1.809
18929SOL     OW60580   6.654   3.195   2.711
18929SOL    HW160581   6.661   3.111   2.656
18929SOL    HW260582   6.716   3.264   2.675
18930SOL     OW60583   5.905   2.672   2.811
18930SOL    HW160584   5.998   2.708   2.816
18930SOL    HW260585   5.899   2.587   2.863
18931SOL     OW60586   5.925   2.371   2.868
18931SOL    HW160587   5.873   2.288   2.851
18931SOL    HW260588   6.002   2.376   2.804
18932SOL     OW60589   6.724   2.242   3.540
18932SOL    HW160590   6.679   2.305   3.604
18932SOL    HW260591   6.817   2.273   3.523
18933SOL     OW60592   6.746   2.069   3.339
18933SOL    HW160593   6.746   2.133   3.416
18933SOL    HW260594   6.774   2.117   3.256
18934SOL     OW60595   5.594   3.188   2.062
18934SOL    HW160596   5.501   3.209   2.031
18934SOL    HW260597   5.604   3.089   2.075
18935SOL     OW60598   5.674   3.663   2.789
18935SOL    HW160599   5.632   3.577   2.762
18935SOL    HW260600   5.768   3.666   2.755
18936SOL     OW60601   6.090   3.430   2.772
18936SOL    HW160602   6.156   3.504   2.781
18936SOL    HW260603   6.134   3.351   2.730
18937SOL     OW60604   6.588   2.658   3.100
18937SOL    HW160605   6.629   2.626   3.186
18937SOL    HW260606   6.492   2.631   3.097
18938SOL     OW60607   5.626   2.406   2.976
18938SOL    HW160608   5.711   2.373   2.935
18938SOL    HW260609   5.639   2.421   3.074
18939SOL     OW60610   5.775   2.382   3.584
18939SOL    HW160611   5.834   2.342   3.514
18939SOL    HW260612   5.717   2.453   3.543
18940SOL     OW60613   6.955   2.812   3.522
18940SOL    HW160614   6.994   2.901   3.542
18940SOL    HW260615   6.965   2.792   3.425
18941SOL     OW60616   6.401   2.434   2.187
18941SOL    HW160617   6.408   2.345   2.141
18941SOL    HW260618   6.307   2.468   2.179
18942SOL     OW60619   7.243   2.466   3.068
18942SOL    HW160620   7.205   2.397   3.130
18942SOL    HW260621   7.325   2.430   3.024
18943SOL     OW60622   5.838   3.426   3.606
18943SOL    HW160623   5.808   3.483   3.682
18943SOL    HW260624   5.831   3.329   3.632
18944SOL     OW60625   6.257   2.326   3.131
18944SOL    HW160626   6.223   2.237   3.101
18944SOL    HW260627   6.283   2.380   3.051
18945SOL     OW60628   6.516   3.540   3.327
18945SOL    HW160629   6.492   3.522   3.232
18945SOL    HW260630   6.546   3.634   3.337
18946SOL     OW60631   6.059   2.362   2.053
18946SOL    HW160632   6.120   2.442   2.057
18946SOL    HW260633   5.964   2.393   2.060
18947SOL     OW60634   5.745   2.999   3.328
18947SOL    HW160635   5.767   2.938   3.404
18947SOL    HW260636   5.755   2.950   3.242
18948SOL     OW60637   6.933   2.921   3.096
18948SOL    HW160638   6.957   2.858   3.022
18948SOL    HW260639   6.843   2.961   3.078
18949SOL     OW60640   6.888   2.717   2.171
18949SOL    HW160641   6.802   2.686   2.213
18949SOL    HW260642   6.884   2.703   2.072
18950SOL     OW60643   7.345   3.609   3.016
18950SOL    HW160644   7.406   3.639   2.943
18950SOL    HW260645   7.307   3.520   2.994
18951SOL     OW60646   6.838   3.593   2.990
18951SOL    HW160647   6.922   3.598   2.936
18951SOL    HW260648   6.815   3.497   3.008
18952SOL     OW60649   5.669   3.120   2.884
18952SOL    HW160650   5.664   3.119   2.984
18952SOL    HW260651   5.586   3.079   2.846
18953SOL     OW60652   6.274   3.524   3.578
18953SOL    HW160653   6.218   3.605   3.587
18953SOL    HW260654   6.326   3.528   3.492
18954SOL     OW60655   7.312   1.997   2.385
18954SOL    HW160656   7.385   1.980   2.318
18954SOL    HW260657   7.281   1.910   2.423
18955SOL     OW60658   6.974   3.435   2.339
18955SOL    HW160659   7.041   3.447   2.265
18955SOL    HW260660   6.934   3.524   2.362
18956SOL     OW60661   5.716   3.656   3.713
18956SOL    HW160662   5.675   3.582   3.766
18956SOL    HW260663   5.780   3.707   3.771
18957SOL     OW60664   6.866   2.789   2.534
18957SOL    HW160665   6.926   2.708   2.536
18957SOL    HW260666   6.906   2.858   2.474
18958SOL     OW60667   6.416   3.135   3.284
18958SOL    HW160668   6.411   3.168   3.379
18958SOL    HW260669   6.330   3.154   3.238
18959SOL     OW60670   6.258   3.478   2.016
18959SOL    HW160671   6.267   3.488   1.917
18959SOL    HW260672   6.218   3.389   2.037
18960SOL     OW60673   7.236   3.582   3.256
18960SOL    HW160674   7.289   3.592   3.172
18960SOL    HW260675   7.209   3.672   3.290
18961SOL     OW60676   7.427   2.037   2.825
18961SOL    HW160677   7.466   1.952   2.789
18961SOL    HW260678   7.329   2.039   2.806
18962SOL     OW60679   5.849   2.188   2.582
18962SOL    HW160680   5.770   2.239   2.548
18962SOL    HW260681   5.840   2.173   2.680
18963SOL     OW60682   6.780   3.474   1.893
18963SOL    HW160683   6.786   3.381   1.930
18963SOL    HW260684   6.721   3.474   1.813
18964SOL     OW60685   6.408   2.864   3.234
18964SOL    HW160686   6.448   2.863   3.142
18964SOL    HW260687   6.418   2.956   3.274
18965SOL     OW60688   6.502   2.772   2.153
18965SOL    HW160689   6.565   2.810   2.085
18965SOL    HW260690   6.542   2.689   2.192
18966SOL     OW60691   7.090   3.469   1.906
18966SOL    HW160692   6.998   3.506   1.913
18966SOL    HW260693   7.128   3.489   1.816
18967SOL     OW60694   5.958   3.150   3.352
18967SOL    HW160695   5.945   3.243   3.318
18967SOL    HW260696   5.874   3.098   3.339
18968SOL     OW60697   7.200   3.154   3.151
18968SOL    HW160698   7.260   3.157   3.231
18968SOL    HW260699   7.125   3.218   3.164
18969SOL     OW60700   6.625   2.960   2.558
18969SOL    HW160701   6.555   2.913   2.612
18969SOL    HW260702   6.684   2.892   2.515
18970SOL     OW60703   6.600   2.098   2.833
18970SOL    HW160704   6.592   2.062   2.740
18970SOL    HW260705   6.598   2.022   2.898
18971SOL     OW60706   6.176   3.349   2.353
18971SOL    HW160707   6.218   3.291   2.283
18971SOL    HW260708   6.132   3.428   2.309
18972SOL     OW60709   7.295   2.247   3.243
18972SOL    HW160710   7.368   2.316   3.247
18972SOL    HW260711   7.323   2.172   3.184
18973SOL     OW60712   5.841   3.210   2.152
18973SOL    HW160713   5.745   3.211   2.125
18973SOL    HW260714   5.853   3.263   2.236
18974SOL     OW60715   5.691   2.875   3.588
18974SOL    HW160716   5.614   2.842   3.642
18974SOL    HW260717   5.776   2.845   3.630
18975SOL     OW60718   6.258   2.065   3.351
18975SOL    HW160719   6.348   2.049   3.311
18975SOL    HW260720   6.266   2.070   3.450
18976SOL     OW60721   5.661   2.207   1.895
18976SOL    HW160722   5.569   2.179   1.866
18976SOL    HW260723   5.692   2.284   1.839
18977SOL     OW60724   7.026   2.718   3.260
18977SOL    HW160725   6.969   2.770   3.197
18977SOL    HW260726   7.122   2.730   3.236
18978SOL     OW60727   5.658   2.028   2.180
18978SOL    HW160728   5.641   2.111   2.126
18978SOL    HW260729   5.748   1.991   2.158
18979SOL     OW60730   6.769   3.197   1.981
18979SOL    HW160731   6.670   3.186   1.983
18979SOL    HW260732   6.803   3.212   2.074
18980SOL     OW60733   6.199   2.704   3.293
18980SOL    HW160734   6.255   2.785   3.276
18980SOL    HW260735   6.258   2.624   3.296
18981SOL     OW60736   7.079   3.629   2.821
18981SOL    HW160737   7.112   3.693   2.752
18981SOL    HW260738   7.145   3.623   2.896
18982SOL     OW60739   6.302   2.427   3.570
18982SOL    HW160740   6.321   2.492   3.644
18982SOL    HW260741   6.362   2.347   3.579
18983SOL     OW60742   7.036   3.082   3.495
18983SOL    HW160743   7.027   3.072   3.594
18983SOL    HW260744   7.132   3.075   3.469
18984SOL     OW60745   5.976   3.603   3.422
18984SOL    HW160746   5.885   3.644   3.420
18984SOL    HW260747   5.969   3.509   3.454
18985SOL     OW60748   7.260   2.745   3.116
18985SOL    HW160749   7.233   2.656   3.079
18985SOL    HW260750   7.261   2.813   3.043
18986SOL     OW60751   6.811   2.187   2.311
18986SOL    HW160752   6.876   2.113   2.300
18986SOL    HW260753   6.831   2.237   2.395
18987SOL     OW60754   6.180   2.607   2.514
18987SOL    HW160755   6.230   2.692   2.495
18987SOL    HW260756   6.092   2.609   2.466
18988SOL     OW60757   7.363   2.204   3.504
18988SOL    HW160758   7.346   2.235   3.410
18988SOL    HW260759   7.279   2.167   3.542
18989SOL     OW60760   7.316   2.796   3.379
18989SOL    HW160761   7.354   2.887   3.394
18989SOL    HW260762   7.308   2.779   3.280
18990SOL     OW60763   6.445   3.236   1.878
18990SOL    HW160764   6.399   3.251   1.966
18990SOL    HW260765   6.489   3.321   1.848
18991SOL     OW60766   6.247   3.652   2.815
18991SOL    HW160767   6.201   3.740   2.802
18991SOL    HW260768   6.346   3.664   2.808
18992SOL     OW60769   6.445   2.818   2.723
18992SOL    HW160770   6.499   2.749   2.771
18992SOL    HW260771   6.413   2.887   2.789
18993SOL     OW60772   6.669   2.846   1.949
18993SOL    HW160773   6.646   2.899   1.867
18993SOL    HW260774   6.750   2.790   1.930
18994SOL     OW60775   7.447   3.431   2.713
18994SOL    HW160776   7.376   3.419   2.643
18994SOL    HW260777   7.448   3.352   2.773
18995SOL     OW60778   5.807   3.176   3.706
18995SOL    HW160779   5.742   3.103   3.685
18995SOL    HW260780   5.811   3.190   3.804
18996SOL     OW60781   5.665   3.102   2.515
18996SOL    HW160782   5.664   3.055   2.603
18996SOL    HW260783   5.747   3.074   2.464
18997SOL     OW60784   6.258   3.253   3.486
18997SOL    HW160785   6.180   3.203   3.524
18997SOL    HW260786   6.255   3.348   3.517
18998SOL     OW60787   7.410   2.054   3.089
18998SOL    HW160788   7.406   1.964   3.133
18998SOL    HW260789   7.413   2.043   2.990
18999SOL     OW60790   6.014   2.286   2.382
18999SOL    HW160791   6.044   2.214   2.320
18999SOL    HW260792   5.975   2.246   2.465
19000SOL     OW60793   7.291   3.349   2.966
19000SOL    HW160794   7.198   3.324   2.939
19000SOL    HW260795   7.317   3.299   3.048
19001SOL     OW60796   5.903   2.409   3.142
19001SOL    HW160797   5.941   2.350   3.214
19001SOL    HW260798   5.943   2.383   3.054
19002SOL     OW60799   6.398   3.448   2.549
19002SOL    HW160800   6.430   3.458   2.455
19002SOL    HW260801   6.319   3.386   2.551
19003SOL     OW60802   7.010   2.076   2.974
19003SOL    HW160803   7.062   2.011   3.029
19003SOL    HW260804   6.961   2.139   3.035
19004SOL     OW60805   6.587   1.896   3.016
19004SOL    HW160806   6.524   1.824   2.985
19004SOL    HW260807   6.680   1.860   3.016
19005SOL     OW60808   6.356   3.192   2.163
19005SOL    HW160809   6.310   3.105   2.180
19005SOL    HW260810   6.447   3.189   2.204
19006SOL     OW60811   6.204   3.429   3.146
19006SOL    HW160812   6.199   3.511   3.203
19006SOL    HW260813   6.293   3.426   3.101
19007SOL     OW60814   6.938   1.914   2.030
19007SOL    HW160815   6.973   1.873   1.946
19007SOL    HW260816   6.848   1.876   2.050
19008SOL     OW60817   6.886   2.315   2.553
19008SOL    HW160818   6.827   2.395   2.557
19008SOL    HW260819   6.901   2.280   2.646
19009SOL     OW60820   7.179   2.083   2.744
19009SOL    HW160821   7.095   2.082   2.798
19009SOL    HW260822   7.181   2.166   2.688
19010SOL     OW60823   5.625   2.939   2.162
19010SOL    HW160824   5.724   2.928   2.153
19010SOL    HW260825   5.585   2.853   2.194
19011SOL     OW60826   6.461   3.508   2.199
19011SOL    HW160827   6.384   3.473   2.145
19011SOL    HW260828   6.429   3.579   2.261
19012SOL     OW60829   5.816   2.490   3.837
19012SOL    HW160830   5.723   2.488   3.874
19012SOL    HW260831   5.817   2.451   3.745
19013SOL     OW60832   5.811   2.137   4.720
19013SOL    HW160833   5.846   2.120   4.812
19013SOL    HW260834   5.723   2.092   4.708
19014SOL     OW60835   5.605   2.230   4.371
19014SOL    HW160836   5.523   2.273   4.410
19014SOL    HW260837   5.577   2.157   4.308
19015SOL     OW60838   6.155   3.137   4.889
19015SOL    HW160839   6.062   3.130   4.852
19015SOL    HW260840   6.166   3.226   4.933
19016SOL     OW60841   7.141   3.373   4.427
19016SOL    HW160842   7.084   3.357   4.508
19016SOL    HW260843   7.082   3.383   4.347
19017SOL     OW60844   6.721   2.565   4.441
19017SOL    HW160845   6.778   2.643   4.416
19017SOL    HW260846   6.661   2.591   4.517
19018SOL     OW60847   7.341   2.469   3.955
19018SOL    HW160848   7.329   2.456   3.856
19018SOL    HW260849   7.311   2.388   4.004
19019SOL     OW60850   6.354   3.006   4.747
19019SOL    HW160851   6.276   3.023   4.807
19019SOL    HW260852   6.388   3.093   4.711
19020SOL     OW60853   6.436   2.660   5.547
19020SOL    HW160854   6.432   2.736   5.612
19020SOL    HW260855   6.458   2.696   5.456
19021SOL     OW60856   6.271   2.874   4.389
19021SOL    HW160857   6.340   2.858   4.459
19021SOL    HW260858   6.198   2.931   4.427
19022SOL     OW60859   6.272   3.023   5.527
19022SOL    HW160860   6.332   3.102   5.541
19022SOL    HW260861   6.186   3.054   5.486
19023SOL     OW60862   5.921   3.297   4.785
19023SOL    HW160863   5.843   3.266   4.732
19023SOL    HW260864   5.979   3.355   4.728
19024SOL     OW60865   7.046   3.367   5.063
19024SOL    HW160866   7.070   3.461   5.089
19024SOL    HW260867   7.030   3.313   5.145
19025SOL     OW60868   6.024   2.254   5.223
19025SOL    HW160869   6.106   2.198   5.232
19025SOL    HW260870   5.943   2.196   5.227
19026SOL     OW60871   7.189   2.309   4.461
19026SOL    HW160872   7.115   2.355   4.411
19026SOL    HW260873   7.240   2.377   4.514
19027SOL     OW60874   5.817   3.575   4.207
19027SOL    HW160875   5.851   3.652   4.261
19027SOL    HW260876   5.861   3.575   4.117
19028SOL     OW60877   6.713   3.203   5.414
19028SOL    HW160878   6.760   3.203   5.502
19028SOL    HW260879   6.665   3.116   5.403
19029SOL     OW60880   5.816   3.296   4.262
19029SOL    HW160881   5.790   3.392   4.262
19029SOL    HW260882   5.745   3.242   4.307
19030SOL     OW60883   5.826   2.953   4.610
19030SOL    HW160884   5.840   2.869   4.662
19030SOL    HW260885   5.771   3.017   4.665
19031SOL     OW60886   6.206   3.648   5.163
19031SOL    HW160887   6.114   3.631   5.198
19031SOL    HW260888   6.234   3.740   5.189
19032SOL     OW60889   6.192   2.826   3.847
19032SOL    HW160890   6.199   2.910   3.793
19032SOL    HW260891   6.238   2.839   3.935
19033SOL     OW60892   7.180   1.976   5.204
19033SOL    HW160893   7.162   2.043   5.132
19033SOL    HW260894   7.177   2.022   5.293
19034SOL     OW60895   5.708   2.505   4.287
19034SOL    HW160896   5.663   2.417   4.304
19034SOL    HW260897   5.707   2.559   4.371
19035SOL     OW60898   7.428   3.629   4.083
19035SOL    HW160899   7.482   3.600   4.163
19035SOL    HW260900   7.458   3.719   4.054
19036SOL     OW60901   5.613   3.458   3.841
19036SOL    HW160902   5.594   3.362   3.862
19036SOL    HW260903   5.580   3.516   3.916
19037SOL     OW60904   7.275   2.784   4.336
19037SOL    HW160905   7.370   2.755   4.344
19037SOL    HW260906   7.267   2.849   4.261
19038SOL     OW60907   7.227   2.970   4.156
19038SOL    HW160908   7.313   2.972   4.104
19038SOL    HW260909   7.241   3.017   4.244
19039SOL     OW60910   5.699   2.599   5.321
19039SOL    HW160911   5.787   2.586   5.366
19039SOL    HW260912   5.686   2.696   5.299
19040SOL     OW60913   6.199   3.227   4.450
19040SOL    HW160914   6.150   3.140   4.459
19040SOL    HW260915   6.176   3.270   4.363
19041SOL     OW60916   6.879   3.090   5.147
19041SOL    HW160917   6.916   3.017   5.089
19041SOL    HW260918   6.931   3.095   5.232
19042SOL     OW60919   6.395   1.866   4.226
19042SOL    HW160920   6.435   1.957   4.217
19042SOL    HW260921   6.295   1.874   4.232
19043SOL     OW60922   5.783   2.838   4.988
19043SOL    HW160923   5.872   2.793   4.974
19043SOL    HW260924   5.710   2.773   4.969
19044SOL     OW60925   7.111   2.861   3.914
19044SOL    HW160926   7.048   2.785   3.927
19044SOL    HW260927   7.159   2.879   4.000
19045SOL     OW60928   6.773   3.654   5.340
19045SOL    HW160929   6.797   3.714   5.264
19045SOL    HW260930   6.780   3.559   5.310
19046SOL     OW60931   5.903   2.113   5.525
19046SOL    HW160932   5.974   2.184   5.531
19046SOL    HW260933   5.815   2.152   5.553
19047SOL     OW60934   7.052   3.279   4.677
19047SOL    HW160935   6.993   3.285   4.757
19047SOL    HW260936   7.037   3.191   4.631
19048SOL     OW60937   7.253   3.576   4.296
19048SOL    HW160938   7.212   3.553   4.208
19048SOL    HW260939   7.235   3.502   4.361
19049SOL     OW60940   6.184   2.591   3.994
19049SOL    HW160941   6.208   2.660   3.926
19049SOL    HW260942   6.106   2.624   4.048
19050SOL     OW60943   6.867   2.207   4.668
19050SOL    HW160944   6.781   2.157   4.655
19050SOL    HW260945   6.929   2.153   4.724
19051SOL     OW60946   7.162   3.524   4.031
19051SOL    HW160947   7.251   3.570   4.034
19051SOL    HW260948   7.141   3.500   3.936
19052SOL     OW60949   6.393   2.467   5.189
19052SOL    HW160950   6.346   2.464   5.278
19052SOL    HW260951   6.342   2.412   5.123
19053SOL     OW60952   6.980   2.331   5.398
19053SOL    HW160953   6.960   2.374   5.486
19053SOL    HW260954   7.058   2.269   5.407
19054SOL     OW60955   6.559   2.752   5.296
19054SOL    HW160956   6.605   2.668   5.267
19054SOL    HW260957   6.503   2.786   5.221
19055SOL     OW60958   6.577   2.272   4.966
19055SOL    HW160959   6.500   2.306   5.020
19055SOL    HW260960   6.543   2.221   4.887
19056SOL     OW60961   6.627   2.563   4.153
19056SOL    HW160962   6.653   2.559   4.249
19056SOL    HW260963   6.542   2.512   4.139
19057SOL     OW60964   5.662   2.673   4.513
19057SOL    HW160965   5.761   2.661   4.522
19057SOL    HW260966   5.638   2.768   4.534
19058SOL     OW60967   5.716   3.683   5.295
19058SOL    HW160968   5.706   3.668   5.394
19058SOL    HW260969   5.630   3.719   5.259
19059SOL     OW60970   6.451   2.210   3.919
19059SOL    HW160971   6.510   2.273   3.870
19059SOL    HW260972   6.470   2.116   3.890
19060SOL     OW60973   7.305   2.447   5.555
19060SOL    HW160974   7.279   2.536   5.519
19060SOL    HW260975   7.303   2.379   5.482
19061SOL     OW60976   6.948   3.006   4.269
19061SOL    HW160977   7.031   2.977   4.221
19061SOL    HW260978   6.899   3.073   4.213
19062SOL     OW60979   6.136   2.058   4.609
19062SOL    HW160980   6.131   2.053   4.709
19062SOL    HW260981   6.138   2.154   4.580
19063SOL     OW60982   6.594   3.318   4.201
19063SOL    HW160983   6.548   3.390   4.149
19063SOL    HW260984   6.590   3.338   4.299
19064SOL     OW60985   5.937   3.663   4.577
19064SOL    HW160986   5.987   3.577   4.583
19064SOL    HW260987   6.002   3.740   4.574
19065SOL     OW60988   7.381   2.928   4.597
19065SOL    HW160989   7.319   2.913   4.521
19065SOL    HW260990   7.329   2.939   4.682
19066SOL     OW60991   6.813   3.412   5.230
19066SOL    HW160992   6.819   3.335   5.294
19066SOL    HW260993   6.761   3.386   5.150
19067SOL     OW60994   5.907   2.805   3.966
19067SOL    HW160995   5.989   2.844   3.924
19067SOL    HW260996   5.880   2.723   3.917
19068SOL     OW60997   7.044   2.597   4.452
19068SOL    HW160998   7.039   2.532   4.527
19068SOL    HW260999   7.124   2.656   4.465
19069SOL     OW61000   6.047   3.128   5.451
19069SOL    HW161001   5.997   3.129   5.365
19069SOL    HW261002   5.984   3.110   5.527
19070SOL     OW61003   6.697   3.638   3.961
19070SOL    HW161004   6.637   3.576   4.011
19070SOL    HW261005   6.728   3.594   3.876
19071SOL     OW61006   5.788   2.147   5.222
19071SOL    HW161007   5.708   2.207   5.209
19071SOL    HW261008   5.778   2.098   5.308
19072SOL     OW61009   7.218   3.239   3.805
19072SOL    HW161010   7.186   3.333   3.795
19072SOL    HW261011   7.142   3.176   3.793
19073SOL     OW61012   6.050   3.605   4.047
19073SOL    HW161013   6.083   3.644   4.133
19073SOL    HW261014   6.126   3.598   3.982
19074SOL     OW61015   6.986   1.969   4.150
19074SOL    HW161016   6.962   1.932   4.060
19074SOL    HW261017   7.085   1.985   4.154
19075SOL     OW61018   5.835   3.647   4.965
19075SOL    HW161019   5.892   3.582   5.015
19075SOL    HW261020   5.819   3.614   4.872
19076SOL     OW61021   6.526   3.560   4.628
19076SOL    HW161022   6.606   3.503   4.649
19076SOL    HW261023   6.477   3.520   4.551
19077SOL     OW61024   5.968   2.562   4.204
19077SOL    HW161025   6.013   2.472   4.201
19077SOL    HW261026   5.874   2.551   4.237
19078SOL     OW61027   7.133   2.084   5.453
19078SOL    HW161028   7.128   2.121   5.545
19078SOL    HW261029   7.061   2.015   5.441
19079SOL     OW61030   6.200   1.984   3.841
19079SOL    HW161031   6.298   1.962   3.848
19079SOL    HW261032   6.169   1.967   3.748
19080SOL     OW61033   6.367   2.126   5.473
19080SOL    HW161034   6.434   2.065   5.516
19080SOL    HW261035   6.294   2.145   5.538
19081SOL     OW61036   6.474   3.376   4.919
19081SOL    HW161037   6.451   3.351   4.825
19081SOL    HW261038   6.535   3.307   4.958
19082SOL     OW61039   6.937   2.452   5.157
19082SOL    HW161040   6.965   2.409   5.242
19082SOL    HW261041   6.962   2.548   5.158
19083SOL     OW61042   6.389   3.264   4.648
19083SOL    HW161043   6.479   3.278   4.606
19083SOL    HW261044   6.318   3.266   4.577
19084SOL     OW61045   6.508   2.365   4.623
19084SOL    HW161046   6.483   2.356   4.527
19084SOL    HW261047   6.556   2.283   4.654
19085SOL     OW61048   6.125   1.926   4.236
19085SOL    HW161049   6.044   1.927   4.294
19085SOL    HW261050   6.128   2.009   4.181
19086SOL     OW61051   7.020   3.050   3.765
19086SOL    HW161052   7.052   2.974   3.822
19086SOL    HW261053   6.928   3.077   3.795
19087SOL     OW61054   5.883   1.897   3.895
19087SOL    HW161055   5.932   1.981   3.874
19087SOL    HW261056   5.945   1.832   3.940
19088SOL     OW61057   6.521   2.098   4.204
19088SOL    HW161058   6.473   2.139   4.126
19088SOL    HW261059   6.620   2.096   4.185
19089SOL     OW61060   6.662   2.545   5.188
19089SOL    HW161061   6.582   2.484   5.191
19089SOL    HW261062   6.743   2.492   5.164
19090SOL     OW61063   6.813   3.432   4.517
19090SOL    HW161064   6.834   3.506   4.452
19090SOL    HW261065   6.881   3.432   4.590
19091SOL     OW61066   6.045   3.014   4.465
19091SOL    HW161067   5.974   2.987   4.530
19091SOL    HW261068   6.019   2.986   4.372
19092SOL     OW61069   6.857   3.659   4.315
19092SOL    HW161070   6.901   3.723   4.251
19092SOL    HW261071   6.807   3.711   4.385
19093SOL     OW61072   6.618   2.411   3.740
19093SOL    HW161073   6.577   2.493   3.701
19093SOL    HW261074   6.682   2.437   3.813
19094SOL     OW61075   5.664   2.418   5.110
19094SOL    HW161076   5.756   2.417   5.069
19094SOL    HW261077   5.658   2.492   5.177
19095SOL     OW61078   6.147   2.084   4.871
19095SOL    HW161079   6.185   2.000   4.908
19095SOL    HW261080   6.059   2.103   4.915
19096SOL     OW61081   6.452   2.316   4.366
19096SOL    HW161082   6.420   2.388   4.304
19096SOL    HW261083   6.476   2.235   4.313
19097SOL     OW61084   6.603   1.901   4.477
19097SOL    HW161085   6.531   1.906   4.408
19097SOL    HW261086   6.579   1.832   4.546
19098SOL     OW61087   7.015   3.035   4.591
19098SOL    HW161088   6.960   2.951   4.584
19098SOL    HW261089   7.041   3.064   4.499
19099SOL     OW61090   7.052   2.452   4.716
19099SOL    HW161091   7.022   2.357   4.723
19099SOL    HW261092   7.125   2.468   4.782
19100SOL     OW61093   7.443   2.695   4.101
19100SOL    HW161094   7.485   2.631   4.165
19100SOL    HW261095   7.405   2.644   4.023
19101SOL     OW61096   6.074   3.247   3.898
19101SOL    HW161097   5.987   3.232   3.945
19101SOL    HW261098   6.057   3.273   3.803
19102SOL     OW61099   7.250   3.142   4.381
19102SOL    HW161100   7.349   3.150   4.395
19102SOL    HW261101   7.205   3.226   4.412
19103SOL     OW61102   6.976   2.437   3.802
19103SOL    HW161103   6.922   2.416   3.883
19103SOL    HW261104   7.067   2.396   3.811
19104SOL     OW61105   6.113   2.118   4.052
19104SOL    HW161106   6.140   2.059   3.977
19104SOL    HW261107   6.113   2.213   4.021
19105SOL     OW61108   7.340   3.085   5.312
19105SOL    HW161109   7.431   3.046   5.299
19105SOL    HW261110   7.348   3.181   5.336
19106SOL     OW61111   6.650   3.209   5.064
19106SOL    HW161112   6.570   3.186   5.119
19106SOL    HW261113   6.733   3.183   5.113
19107SOL     OW61114   7.178   3.491   5.349
19107SOL    HW161115   7.205   3.525   5.259
19107SOL    HW261116   7.257   3.453   5.395
19108SOL     OW61117   6.697   3.057   4.824
19108SOL    HW161118   6.657   3.101   4.905
19108SOL    HW261119   6.656   3.094   4.741
19109SOL     OW61120   7.224   2.961   4.803
19109SOL    HW161121   7.229   3.042   4.862
19109SOL    HW261122   7.138   2.963   4.752
19110SOL     OW61123   6.501   1.951   5.126
19110SOL    HW161124   6.526   1.931   5.031
19110SOL    HW261125   6.573   2.007   5.168
19111SOL     OW61126   6.566   2.978   5.443
19111SOL    HW161127   6.467   2.984   5.453
19111SOL    HW261128   6.589   2.898   5.387
19112SOL     OW61129   6.291   2.912   4.092
19112SOL    HW161130   6.277   2.919   4.191
19112SOL    HW261131   6.375   2.861   4.074
19113SOL     OW61132   5.996   2.675   4.975
19113SOL    HW161133   6.082   2.687   5.025
19113SOL    HW261134   5.954   2.588   5.002
19114SOL     OW61135   6.860   2.248   4.986
19114SOL    HW161136   6.881   2.322   5.050
19114SOL    HW261137   6.771   2.265   4.943
19115SOL     OW61138   5.650   3.426   5.055
19115SOL    HW161139   5.604   3.508   5.021
19115SOL    HW261140   5.748   3.445   5.064
19116SOL     OW61141   5.953   2.962   4.225
19116SOL    HW161142   5.946   3.045   4.169
19116SOL    HW261143   5.957   2.882   4.165
19117SOL     OW61144   6.152   2.399   4.589
19117SOL    HW161145   6.164   2.465   4.515
19117SOL    HW261146   6.198   2.433   4.672
19118SOL     OW61147   6.838   3.210   4.112
19118SOL    HW161148   6.888   3.287   4.152
19118SOL    HW261149   6.743   3.212   4.144
19119SOL     OW61150   6.858   3.307   4.866
19119SOL    HW161151   6.905   3.320   4.953
19119SOL    HW261152   6.792   3.233   4.875
19120SOL     OW61153   7.168   2.501   4.196
19120SOL    HW161154   7.137   2.562   4.269
19120SOL    HW261155   7.218   2.553   4.127
19121SOL     OW61156   5.940   3.372   5.053
19121SOL    HW161157   5.919   3.328   4.966
19121SOL    HW261158   6.037   3.398   5.056
19122SOL     OW61159   5.988   2.613   5.322
19122SOL    HW161160   6.056   2.668   5.275
19122SOL    HW261161   6.028   2.525   5.349
19123SOL     OW61162   7.173   2.641   5.394
19123SOL    HW161163   7.081   2.679   5.389
19123SOL    HW261164   7.233   2.688   5.329
19124SOL     OW61165   6.599   1.967   5.494
19124SOL    HW161166   6.605   2.052   5.442
19124SOL    HW261167   6.631   1.891   5.437
19125SOL     OW61168   6.090   1.912   5.464
19125SOL    HW161169   6.048   1.855   5.394
19125SOL    HW261170   6.024   1.981   5.496
19126SOL     OW61171   6.159   2.732   4.753
19126SOL    HW161172   6.203   2.821   4.744
19126SOL    HW261173   6.096   2.732   4.830
19127SOL     OW61174   6.946   2.724   4.769
19127SOL    HW161175   6.871   2.724   4.703
19127SOL    HW261176   6.983   2.632   4.778
19128SOL     OW61177   6.795   2.387   3.999
19128SOL    HW161178   6.808   2.303   4.053
19128SOL    HW261179   6.766   2.461   4.059
19129SOL     OW61180   5.893   2.075   4.955
19129SOL    HW161181   5.870   2.112   5.045
19129SOL    HW261182   5.863   1.980   4.949
19130SOL     OW61183   5.623   3.172   5.006
19130SOL    HW161184   5.676   3.123   5.074
19130SOL    HW261185   5.645   3.270   5.011
19131SOL     OW61186   6.318   2.496   4.788
19131SOL    HW161187   6.377   2.470   4.712
19131SOL    HW261188   6.290   2.592   4.777
19132SOL     OW61189   7.314   2.797   5.578
19132SOL    HW161190   7.268   2.790   5.489
19132SOL    HW261191   7.252   2.841   5.644
19133SOL     OW61192   5.893   1.925   4.342
19133SOL    HW161193   5.882   2.019   4.375
19133SOL    HW261194   5.888   1.862   4.419
19134SOL     OW61195   7.208   2.229   4.098
19134SOL    HW161196   7.210   2.153   4.162
19134SOL    HW261197   7.160   2.306   4.138
19135SOL     OW61198   6.609   2.628   4.690
19135SOL    HW161199   6.624   2.649   4.786
19135SOL    HW261200   6.579   2.533   4.681
19136SOL     OW61201   6.566   3.435   5.424
19136SOL    HW161202   6.546   3.479   5.336
19136SOL    HW261203   6.605   3.344   5.408
19137SOL     OW61204   7.445   3.380   5.329
19137SOL    HW161205   7.459   3.407   5.234
19137SOL    HW261206   7.528   3.402   5.382
19138SOL     OW61207   5.936   2.760   5.528
19138SOL    HW161208   6.012   2.804   5.576
19138SOL    HW261209   5.971   2.713   5.446
19139SOL     OW61210   7.126   2.136   3.849
19139SOL    HW161211   7.065   2.061   3.872
19139SOL    HW261212   7.148   2.188   3.932
19140SOL     OW61213   6.889   2.700   3.766
19140SOL    HW161214   6.923   2.607   3.781
19140SOL    HW261215   6.907   2.727   3.671
19141SOL     OW61216   6.654   3.195   4.573
19141SOL    HW161217   6.661   3.111   4.518
19141SOL    HW261218   6.716   3.264   4.537
19142SOL     OW61219   5.905   2.672   4.673
19142SOL    HW161220   5.998   2.708   4.678
19142SOL    HW261221   5.899   2.587   4.725
19143SOL     OW61222   5.925   2.371   4.730
19143SOL    HW161223   5.873   2.288   4.713
19143SOL    HW261224   6.002   2.376   4.666
19144SOL     OW61225   6.724   2.242   5.402
19144SOL    HW161226   6.679   2.305   5.466
19144SOL    HW261227   6.817   2.273   5.385
19145SOL     OW61228   6.746   2.069   5.201
19145SOL    HW161229   6.746   2.133   5.278
19145SOL    HW261230   6.774   2.117   5.118
19146SOL     OW61231   5.594   3.188   3.924
19146SOL    HW161232   5.501   3.209   3.893
19146SOL    HW261233   5.604   3.089   3.937
19147SOL     OW61234   5.674   3.663   4.651
19147SOL    HW161235   5.632   3.577   4.624
19147SOL    HW261236   5.768   3.666   4.617
19148SOL     OW61237   6.090   3.430   4.634
19148SOL    HW161238   6.156   3.504   4.643
19148SOL    HW261239   6.134   3.351   4.592
19149SOL     OW61240   6.588   2.658   4.962
19149SOL    HW161241   6.629   2.626   5.048
19149SOL    HW261242   6.492   2.631   4.959
19150SOL     OW61243   5.626   2.406   4.838
19150SOL    HW161244   5.711   2.373   4.797
19150SOL    HW261245   5.639   2.421   4.936
19151SOL     OW61246   5.775   2.382   5.446
19151SOL    HW161247   5.834   2.342   5.376
19151SOL    HW261248   5.717   2.453   5.405
19152SOL     OW61249   6.955   2.812   5.384
19152SOL    HW161250   6.994   2.901   5.404
19152SOL    HW261251   6.965   2.792   5.287
19153SOL     OW61252   6.401   2.434   4.049
19153SOL    HW161253   6.408   2.345   4.003
19153SOL    HW261254   6.307   2.468   4.041
19154SOL     OW61255   7.243   2.466   4.930
19154SOL    HW161256   7.205   2.397   4.992
19154SOL    HW261257   7.325   2.430   4.886
19155SOL     OW61258   5.838   3.426   5.468
19155SOL    HW161259   5.808   3.483   5.544
19155SOL    HW261260   5.831   3.329   5.494
19156SOL     OW61261   6.257   2.326   4.993
19156SOL    HW161262   6.223   2.237   4.963
19156SOL    HW261263   6.283   2.380   4.913
19157SOL     OW61264   6.516   3.540   5.189
19157SOL    HW161265   6.492   3.522   5.094
19157SOL    HW261266   6.546   3.634   5.199
19158SOL     OW61267   6.059   2.362   3.915
19158SOL    HW161268   6.120   2.442   3.919
19158SOL    HW261269   5.964   2.393   3.922
19159SOL     OW61270   5.745   2.999   5.190
19159SOL    HW161271   5.767   2.938   5.266
19159SOL    HW261272   5.755   2.950   5.104
19160SOL     OW61273   6.933   2.921   4.958
19160SOL    HW161274   6.957   2.858   4.884
19160SOL    HW261275   6.843   2.961   4.940
19161SOL     OW61276   6.888   2.717   4.033
19161SOL    HW161277   6.802   2.686   4.075
19161SOL    HW261278   6.884   2.703   3.934
19162SOL     OW61279   7.345   3.609   4.878
19162SOL    HW161280   7.406   3.639   4.805
19162SOL    HW261281   7.307   3.520   4.856
19163SOL     OW61282   6.838   3.593   4.852
19163SOL    HW161283   6.922   3.598   4.798
19163SOL    HW261284   6.815   3.497   4.870
19164SOL     OW61285   5.669   3.120   4.746
19164SOL    HW161286   5.664   3.119   4.846
19164SOL    HW261287   5.586   3.079   4.708
19165SOL     OW61288   6.274   3.524   5.440
19165SOL    HW161289   6.218   3.605   5.449
19165SOL    HW261290   6.326   3.528   5.354
19166SOL     OW61291   7.312   1.997   4.247
19166SOL    HW161292   7.385   1.980   4.180
19166SOL    HW261293   7.281   1.910   4.285
19167SOL     OW61294   6.974   3.435   4.201
19167SOL    HW161295   7.041   3.447   4.127
19167SOL    HW261296   6.934   3.524   4.224
19168SOL     OW61297   5.716   3.656   5.575
19168SOL    HW161298   5.675   3.582   5.628
19168SOL    HW261299   5.780   3.707   5.633
19169SOL     OW61300   6.866   2.789   4.396
19169SOL    HW161301   6.926   2.708   4.398
19169SOL    HW261302   6.906   2.858   4.336
19170SOL     OW61303   6.416   3.135   5.146
19170SOL    HW161304   6.411   3.168   5.241
19170SOL    HW261305   6.330   3.154   5.100
19171SOL     OW61306   6.258   3.478   3.878
19171SOL    HW161307   6.267   3.488   3.779
19171SOL    HW261308   6.218   3.389   3.899
19172SOL     OW61309   7.236   3.582   5.118
19172SOL    HW161310   7.289   3.592   5.034
19172SOL    HW261311   7.209   3.672   5.152
19173SOL     OW61312   7.427   2.037   4.687
19173SOL    HW161313   7.466   1.952   4.651
19173SOL    HW261314   7.329   2.039   4.668
19174SOL     OW61315   5.849   2.188   4.444
19174SOL    HW161316   5.770   2.239   4.410
19174SOL    HW261317   5.840   2.173   4.542
19175SOL     OW61318   6.780   3.474   3.755
19175SOL    HW161319   6.786   3.381   3.792
19175SOL    HW261320   6.721   3.474   3.675
19176SOL     OW61321   6.408   2.864   5.096
19176SOL    HW161322   6.448   2.863   5.004
19176SOL    HW261323   6.418   2.956   5.136
19177SOL     OW61324   6.502   2.772   4.015
19177SOL    HW161325   6.565   2.810   3.947
19177SOL    HW261326   6.542   2.689   4.054
19178SOL     OW61327   7.090   3.469   3.768
19178SOL    HW161328   6.998   3.506   3.775
19178SOL    HW261329   7.128   3.489   3.678
19179SOL     OW61330   5.958   3.150   5.214
19179SOL    HW161331   5.945   3.243   5.180
19179SOL    HW261332   5.874   3.098   5.201
19180SOL     OW61333   7.200   3.154   5.013
19180SOL    HW161334   7.260   3.157   5.093
19180SOL    HW261335   7.125   3.218   5.026
19181SOL     OW61336   6.625   2.960   4.420
19181SOL    HW161337   6.555   2.913   4.474
19181SOL    HW261338   6.684   2.892   4.377
19182SOL     OW61339   6.600   2.098   4.695
19182SOL    HW161340   6.592   2.062   4.602
19182SOL    HW261341   6.598   2.022   4.760
19183SOL     OW61342   6.176   3.349   4.215
19183SOL    HW161343   6.218   3.291   4.145
19183SOL    HW261344   6.132   3.428   4.171
19184SOL     OW61345   7.295   2.247   5.105
19184SOL    HW161346   7.368   2.316   5.109
19184SOL    HW261347   7.323   2.172   5.046
19185SOL     OW61348   5.841   3.210   4.014
19185SOL    HW161349   5.745   3.211   3.987
19185SOL    HW261350   5.853   3.263   4.098
19186SOL     OW61351   5.691   2.875   5.450
19186SOL    HW161352   5.614   2.842   5.504
19186SOL    HW261353   5.776   2.845   5.492
19187SOL     OW61354   6.258   2.065   5.213
19187SOL    HW161355   6.348   2.049   5.173
19187SOL    HW261356   6.266   2.070   5.312
19188SOL     OW61357   5.661   2.207   3.757
19188SOL    HW161358   5.569   2.179   3.728
19188SOL    HW261359   5.692   2.284   3.701
19189SOL     OW61360   7.026   2.718   5.122
19189SOL    HW161361   6.969   2.770   5.059
19189SOL    HW261362   7.122   2.730   5.098
19190SOL     OW61363   5.658   2.028   4.042
19190SOL    HW161364   5.641   2.111   3.988
19190SOL    HW261365   5.748   1.991   4.020
19191SOL     OW61366   6.769   3.197   3.843
19191SOL    HW161367   6.670   3.186   3.845
19191SOL    HW261368   6.803   3.212   3.936
19192SOL     OW61369   6.199   2.704   5.155
19192SOL    HW161370   6.255   2.785   5.138
19192SOL    HW261371   6.258   2.624   5.158
19193SOL     OW61372   7.079   3.629   4.683
19193SOL    HW161373   7.112   3.693   4.614
19193SOL    HW261374   7.145   3.623   4.758
19194SOL     OW61375   6.302   2.427   5.432
19194SOL    HW161376   6.321   2.492   5.506
19194SOL    HW261377   6.362   2.347   5.441
19195SOL     OW61378   7.036   3.082   5.357
19195SOL    HW161379   7.027   3.072   5.456
19195SOL    HW261380   7.132   3.075   5.331
19196SOL     OW61381   5.976   3.603   5.284
19196SOL    HW161382   5.885   3.644   5.282
19196SOL    HW261383   5.969   3.509   5.316
19197SOL     OW61384   7.260   2.745   4.978
19197SOL    HW161385   7.233   2.656   4.941
19197SOL    HW261386   7.261   2.813   4.905
19198SOL     OW61387   6.811   2.187   4.173
19198SOL    HW161388   6.876   2.113   4.162
19198SOL    HW261389   6.831   2.237   4.257
19199SOL     OW61390   6.180   2.607   4.376
19199SOL    HW161391   6.230   2.692   4.357
19199SOL    HW261392   6.092   2.609   4.328
19200SOL     OW61393   7.363   2.204   5.366
19200SOL    HW161394   7.346   2.235   5.272
19200SOL    HW261395   7.279   2.167   5.404
19201SOL     OW61396   7.316   2.796   5.241
19201SOL    HW161397   7.354   2.887   5.256
19201SOL    HW261398   7.308   2.779   5.142
19202SOL     OW61399   6.445   3.236   3.740
19202SOL    HW161400   6.399   3.251   3.828
19202SOL    HW261401   6.489   3.321   3.710
19203SOL     OW61402   6.247   3.652   4.677
19203SOL    HW161403   6.201   3.740   4.664
19203SOL    HW261404   6.346   3.664   4.670
19204SOL     OW61405   6.445   2.818   4.585
19204SOL    HW161406   6.499   2.749   4.633
19204SOL    HW261407   6.413   2.887   4.651
19205SOL     OW61408   6.669   2.846   3.811
19205SOL    HW161409   6.646   2.899   3.729
19205SOL    HW261410   6.750   2.790   3.792
19206SOL     OW61411   7.447   3.431   4.575
19206SOL    HW161412   7.376   3.419   4.505
19206SOL    HW261413   7.448   3.352   4.635
19207SOL     OW61414   5.807   3.176   5.568
19207SOL    HW161415   5.742   3.103   5.547
19207SOL    HW261416   5.811   3.190   5.666
19208SOL     OW61417   5.665   3.102   4.377
19208SOL    HW161418   5.664   3.055   4.465
19208SOL    HW261419   5.747   3.074   4.326
19209SOL     OW61420   6.258   3.253   5.348
19209SOL    HW161421   6.180   3.203   5.386
19209SOL    HW261422   6.255   3.348   5.379
19210SOL     OW61423   7.410   2.054   4.951
19210SOL    HW161424   7.406   1.964   4.995
19210SOL    HW261425   7.413   2.043   4.852
19211SOL     OW61426   6.014   2.286   4.244
19211SOL    HW161427   6.044   2.214   4.182
19211SOL    HW261428   5.975   2.246   4.327
19212SOL     OW61429   7.291   3.349   4.828
19212SOL    HW161430   7.198   3.324   4.801
19212SOL    HW261431   7.317   3.299   4.910
19213SOL     OW61432   5.903   2.409   5.004
19213SOL    HW161433   5.941   2.350   5.076
19213SOL    HW261434   5.943   2.383   4.916
19214SOL     OW61435   6.398   3.448   4.411
19214SOL    HW161436   6.430   3.458   4.317
19214SOL    HW261437   6.319   3.386   4.413
19215SOL     OW61438   7.010   2.076   4.836
19215SOL    HW161439   7.062   2.011   4.891
19215SOL    HW261440   6.961   2.139   4.897
19216SOL     OW61441   6.587   1.896   4.878
19216SOL    HW161442   6.524   1.824   4.847
19216SOL    HW261443   6.680   1.860   4.878
19217SOL     OW61444   6.356   3.192   4.025
19217SOL    HW161445   6.310   3.105   4.042
19217SOL    HW261446   6.447   3.189   4.066
19218SOL     OW61447   6.204   3.429   5.008
19218SOL    HW161448   6.199   3.511   5.065
19218SOL    HW261449   6.293   3.426   4.963
19219SOL     OW61450   6.938   1.914   3.892
19219SOL    HW161451   6.973   1.873   3.808
19219SOL    HW261452   6.848   1.876   3.912
19220SOL     OW61453   6.886   2.315   4.415
19220SOL    HW161454   6.827   2.395   4.419
19220SOL    HW261455   6.901   2.280   4.508
19221SOL     OW61456   7.179   2.083   4.606
19221SOL    HW161457   7.095   2.082   4.660
19221SOL    HW261458   7.181   2.166   4.550
19222SOL     OW61459   5.625   2.939   4.024
19222SOL    HW161460   5.724   2.928   4.015
19222SOL    HW261461   5.585   2.853   4.056
19223SOL     OW61462   6.461   3.508   4.061
19223SOL    HW161463   6.384   3.473   4.007
19223SOL    HW261464   6.429   3.579   4.123
19224SOL     OW61465   5.816   2.490   5.699
19224SOL    HW161466   5.723   2.488   5.736
19224SOL    HW261467   5.817   2.451   5.607
19225SOL     OW61468   5.811   2.137   6.582
19225SOL    HW161469   5.846   2.120   6.674
19225SOL    HW261470   5.723   2.092   6.570
19226SOL     OW61471   5.605   2.230   6.233
19226SOL    HW161472   5.523   2.273   6.272
19226SOL    HW261473   5.577   2.157   6.170
19227SOL     OW61474   6.155   3.137   6.751
19227SOL    HW161475   6.062   3.130   6.714
19227SOL    HW261476   6.166   3.226   6.795
19228SOL     OW61477   7.141   3.373   6.289
19228SOL    HW161478   7.084   3.357   6.370
19228SOL    HW261479   7.082   3.383   6.209
19229SOL     OW61480   6.721   2.565   6.303
19229SOL    HW161481   6.778   2.643   6.278
19229SOL    HW261482   6.661   2.591   6.379
19230SOL     OW61483   7.341   2.469   5.817
19230SOL    HW161484   7.329   2.456   5.718
19230SOL    HW261485   7.311   2.388   5.866
19231SOL     OW61486   6.354   3.006   6.609
19231SOL    HW161487   6.276   3.023   6.669
19231SOL    HW261488   6.388   3.093   6.573
19232SOL     OW61489   6.436   2.660   7.409
19232SOL    HW161490   6.432   2.736   7.474
19232SOL    HW261491   6.458   2.696   7.318
19233SOL     OW61492   6.271   2.874   6.251
19233SOL    HW161493   6.340   2.858   6.321
19233SOL    HW261494   6.198   2.931   6.289
19234SOL     OW61495   6.272   3.023   7.389
19234SOL    HW161496   6.332   3.102   7.403
19234SOL    HW261497   6.186   3.054   7.348
19235SOL     OW61498   5.921   3.297   6.647
19235SOL    HW161499   5.843   3.266   6.594
19235SOL    HW261500   5.979   3.355   6.590
19236SOL     OW61501   7.046   3.367   6.925
19236SOL    HW161502   7.070   3.461   6.951
19236SOL    HW261503   7.030   3.313   7.007
19237SOL     OW61504   6.024   2.254   7.085
19237SOL    HW161505   6.106   2.198   7.094
19237SOL    HW261506   5.943   2.196   7.089
19238SOL     OW61507   7.189   2.309   6.323
19238SOL    HW161508   7.115   2.355   6.273
19238SOL    HW261509   7.240   2.377   6.376
19239SOL     OW61510   5.817   3.575   6.069
19239SOL    HW161511   5.851   3.652   6.123
19239SOL    HW261512   5.861   3.575   5.979
19240SOL     OW61513   6.713   3.203   7.276
19240SOL    HW161514   6.760   3.203   7.364
19240SOL    HW261515   6.665   3.116   7.265
19241SOL     OW61516   5.816   3.296   6.124
19241SOL    HW161517   5.790   3.392   6.124
19241SOL    HW261518   5.745   3.242   6.169
19242SOL     OW61519   5.826   2.953   6.472
19242SOL    HW161520   5.840   2.869   6.524
19242SOL    HW261521   5.771   3.017   6.527
19243SOL     OW61522   6.206   3.648   7.025
19243SOL    HW161523   6.114   3.631   7.060
19243SOL    HW261524   6.234   3.740   7.051
19244SOL     OW61525   6.192   2.826   5.709
19244SOL    HW161526   6.199   2.910   5.655
19244SOL    HW261527   6.238   2.839   5.797
19245SOL     OW61528   7.180   1.976   7.066
19245SOL    HW161529   7.162   2.043   6.994
19245SOL    HW261530   7.177   2.022   7.155
19246SOL     OW61531   5.708   2.505   6.149
19246SOL    HW161532   5.663   2.417   6.166
19246SOL    HW261533   5.707   2.559   6.233
19247SOL     OW61534   7.428   3.629   5.945
19247SOL    HW161535   7.482   3.600   6.025
19247SOL    HW261536   7.458   3.719   5.916
19248SOL     OW61537   5.613   3.458   5.703
19248SOL    HW161538   5.594   3.362   5.724
19248SOL    HW261539   5.580   3.516   5.778
19249SOL     OW61540   7.275   2.784   6.198
19249SOL    HW161541   7.370   2.755   6.206
19249SOL    HW261542   7.267   2.849   6.123
19250SOL     OW61543   7.227   2.970   6.018
19250SOL    HW161544   7.313   2.972   5.966
19250SOL    HW261545   7.241   3.017   6.106
19251SOL     OW61546   5.699   2.599   7.183
19251SOL    HW161547   5.787   2.586   7.228
19251SOL    HW261548   5.686   2.696   7.161
19252SOL     OW61549   6.199   3.227   6.312
19252SOL    HW161550   6.150   3.140   6.321
19252SOL    HW261551   6.176   3.270   6.225
19253SOL     OW61552   6.879   3.090   7.009
19253SOL    HW161553   6.916   3.017   6.951
19253SOL    HW261554   6.931   3.095   7.094
19254SOL     OW61555   6.395   1.866   6.088
19254SOL    HW161556   6.435   1.957   6.079
19254SOL    HW261557   6.295   1.874   6.094
19255SOL     OW61558   5.783   2.838   6.850
19255SOL    HW161559   5.872   2.793   6.836
19255SOL    HW261560   5.710   2.773   6.831
19256SOL     OW61561   7.111   2.861   5.776
19256SOL    HW161562   7.048   2.785   5.789
19256SOL    HW261563   7.159   2.879   5.862
19257SOL     OW61564   6.773   3.654   7.202
19257SOL    HW161565   6.797   3.714   7.126
19257SOL    HW261566   6.780   3.559   7.172
19258SOL     OW61567   5.903   2.113   7.387
19258SOL    HW161568   5.974   2.184   7.393
19258SOL    HW261569   5.815   2.152   7.415
19259SOL     OW61570   7.052   3.279   6.539
19259SOL    HW161571   6.993   3.285   6.619
19259SOL    HW261572   7.037   3.191   6.493
19260SOL     OW61573   7.253   3.576   6.158
19260SOL    HW161574   7.212   3.553   6.070
19260SOL    HW261575   7.235   3.502   6.223
19261SOL     OW61576   6.184   2.591   5.856
19261SOL    HW161577   6.208   2.660   5.788
19261SOL    HW261578   6.106   2.624   5.910
19262SOL     OW61579   6.867   2.207   6.530
19262SOL    HW161580   6.781   2.157   6.517
19262SOL    HW261581   6.929   2.153   6.586
19263SOL     OW61582   7.162   3.524   5.893
19263SOL    HW161583   7.251   3.570   5.896
19263SOL    HW261584   7.141   3.500   5.798
19264SOL     OW61585   6.393   2.467   7.051
19264SOL    HW161586   6.346   2.464   7.140
19264SOL    HW261587   6.342   2.412   6.985
19265SOL     OW61588   6.980   2.331   7.260
19265SOL    HW161589   6.960   2.374   7.348
19265SOL    HW261590   7.058   2.269   7.269
19266SOL     OW61591   6.559   2.752   7.158
19266SOL    HW161592   6.605   2.668   7.129
19266SOL    HW261593   6.503   2.786   7.083
19267SOL     OW61594   6.577   2.272   6.828
19267SOL    HW161595   6.500   2.306   6.882
19267SOL    HW261596   6.543   2.221   6.749
19268SOL     OW61597   6.627   2.563   6.015
19268SOL    HW161598   6.653   2.559   6.111
19268SOL    HW261599   6.542   2.512   6.001
19269SOL     OW61600   5.662   2.673   6.375
19269SOL    HW161601   5.761   2.661   6.384
19269SOL    HW261602   5.638   2.768   6.396
19270SOL     OW61603   5.716   3.683   7.157
19270SOL    HW161604   5.706   3.668   7.256
19270SOL    HW261605   5.630   3.719   7.121
19271SOL     OW61606   6.451   2.210   5.781
19271SOL    HW161607   6.510   2.273   5.732
19271SOL    HW261608   6.470   2.116   5.752
19272SOL     OW61609   7.305   2.447   7.417
19272SOL    HW161610   7.279   2.536   7.381
19272SOL    HW261611   7.303   2.379   7.344
19273SOL     OW61612   6.948   3.006   6.131
19273SOL    HW161613   7.031   2.977   6.083
19273SOL    HW261614   6.899   3.073   6.075
19274SOL     OW61615   6.136   2.058   6.471
19274SOL    HW161616   6.131   2.053   6.571
19274SOL    HW261617   6.138   2.154   6.442
19275SOL     OW61618   6.594   3.318   6.063
19275SOL    HW161619   6.548   3.390   6.011
19275SOL    HW261620   6.590   3.338   6.161
19276SOL     OW61621   5.937   3.663   6.439
19276SOL    HW161622   5.987   3.577   6.445
19276SOL    HW261623   6.002   3.740   6.436
19277SOL     OW61624   7.381   2.928   6.459
19277SOL    HW161625   7.319   2.913   6.383
19277SOL    HW261626   7.329   2.939   6.544
19278SOL     OW61627   6.813   3.412   7.092
19278SOL    HW161628   6.819   3.335   7.156
19278SOL    HW261629   6.761   3.386   7.012
19279SOL     OW61630   5.907   2.805   5.828
19279SOL    HW161631   5.989   2.844   5.786
19279SOL    HW261632   5.880   2.723   5.779
19280SOL     OW61633   7.044   2.597   6.314
19280SOL    HW161634   7.039   2.532   6.389
19280SOL    HW261635   7.124   2.656   6.327
19281SOL     OW61636   6.047   3.128   7.313
19281SOL    HW161637   5.997   3.129   7.227
19281SOL    HW261638   5.984   3.110   7.389
19282SOL     OW61639   6.697   3.638   5.823
19282SOL    HW161640   6.637   3.576   5.873
19282SOL    HW261641   6.728   3.594   5.738
19283SOL     OW61642   5.788   2.147   7.084
19283SOL    HW161643   5.708   2.207   7.071
19283SOL    HW261644   5.778   2.098   7.170
19284SOL     OW61645   7.218   3.239   5.667
19284SOL    HW161646   7.186   3.333   5.657
19284SOL    HW261647   7.142   3.176   5.655
19285SOL     OW61648   6.050   3.605   5.909
19285SOL    HW161649   6.083   3.644   5.995
19285SOL    HW261650   6.126   3.598   5.844
19286SOL     OW61651   6.986   1.969   6.012
19286SOL    HW161652   6.962   1.932   5.922
19286SOL    HW261653   7.085   1.985   6.016
19287SOL     OW61654   5.835   3.647   6.827
19287SOL    HW161655   5.892   3.582   6.877
19287SOL    HW261656   5.819   3.614   6.734
19288SOL     OW61657   6.526   3.560   6.490
19288SOL    HW161658   6.606   3.503   6.511
19288SOL    HW261659   6.477   3.520   6.413
19289SOL     OW61660   5.968   2.562   6.066
19289SOL    HW161661   6.013   2.472   6.063
19289SOL    HW261662   5.874   2.551   6.099
19290SOL     OW61663   7.133   2.084   7.315
19290SOL    HW161664   7.128   2.121   7.407
19290SOL    HW261665   7.061   2.015   7.303
19291SOL     OW61666   6.200   1.984   5.703
19291SOL    HW161667   6.298   1.962   5.710
19291SOL    HW261668   6.169   1.967   5.610
19292SOL     OW61669   6.367   2.126   7.335
19292SOL    HW161670   6.434   2.065   7.378
19292SOL    HW261671   6.294   2.145   7.400
19293SOL     OW61672   6.474   3.376   6.781
19293SOL    HW161673   6.451   3.351   6.687
19293SOL    HW261674   6.535   3.307   6.820
19294SOL     OW61675   6.937   2.452   7.019
19294SOL    HW161676   6.965   2.409   7.104
19294SOL    HW261677   6.962   2.548   7.020
19295SOL     OW61678   6.389   3.264   6.510
19295SOL    HW161679   6.479   3.278   6.468
19295SOL    HW261680   6.318   3.266   6.439
19296SOL     OW61681   6.508   2.365   6.485
19296SOL    HW161682   6.483   2.356   6.389
19296SOL    HW261683   6.556   2.283   6.516
19297SOL     OW61684   6.125   1.926   6.098
19297SOL    HW161685   6.044   1.927   6.156
19297SOL    HW261686   6.128   2.009   6.043
19298SOL     OW61687   7.020   3.050   5.627
19298SOL    HW161688   7.052   2.974   5.684
19298SOL    HW261689   6.928   3.077   5.657
19299SOL     OW61690   5.883   1.897   5.757
19299SOL    HW161691   5.932   1.981   5.736
19299SOL    HW261692   5.945   1.832   5.802
19300SOL     OW61693   6.521   2.098   6.066
19300SOL    HW161694   6.473   2.139   5.988
19300SOL    HW261695   6.620   2.096   6.047
19301SOL     OW61696   6.662   2.545   7.050
19301SOL    HW161697   6.582   2.484   7.053
19301SOL    HW261698   6.743   2.492   7.026
19302SOL     OW61699   6.813   3.432   6.379
19302SOL    HW161700   6.834   3.506   6.314
19302SOL    HW261701   6.881   3.432   6.452
19303SOL     OW61702   6.045   3.014   6.327
19303SOL    HW161703   5.974   2.987   6.392
19303SOL    HW261704   6.019   2.986   6.234
19304SOL     OW61705   6.857   3.659   6.177
19304SOL    HW161706   6.901   3.723   6.113
19304SOL    HW261707   6.807   3.711   6.247
19305SOL     OW61708   6.618   2.411   5.602
19305SOL    HW161709   6.577   2.493   5.563
19305SOL    HW261710   6.682   2.437   5.675
19306SOL     OW61711   5.664   2.418   6.972
19306SOL    HW161712   5.756   2.417   6.931
19306SOL    HW261713   5.658   2.492   7.039
19307SOL     OW61714   6.147   2.084   6.733
19307SOL    HW161715   6.185   2.000   6.770
19307SOL    HW261716   6.059   2.103   6.777
19308SOL     OW61717   6.452   2.316   6.228
19308SOL    HW161718   6.420   2.388   6.166
19308SOL    HW261719   6.476   2.235   6.175
19309SOL     OW61720   6.603   1.901   6.339
19309SOL    HW161721   6.531   1.906   6.270
19309SOL    HW261722   6.579   1.832   6.408
19310SOL     OW61723   7.015   3.035   6.453
19310SOL    HW161724   6.960   2.951   6.446
19310SOL    HW261725   7.041   3.064   6.361
19311SOL     OW61726   7.052   2.452   6.578
19311SOL    HW161727   7.022   2.357   6.585
19311SOL    HW261728   7.125   2.468   6.644
19312SOL     OW61729   7.443   2.695   5.963
19312SOL    HW161730   7.485   2.631   6.027
19312SOL    HW261731   7.405   2.644   5.885
19313SOL     OW61732   6.074   3.247   5.760
19313SOL    HW161733   5.987   3.232   5.807
19313SOL    HW261734   6.057   3.273   5.665
19314SOL     OW61735   7.250   3.142   6.243
19314SOL    HW161736   7.349   3.150   6.257
19314SOL    HW261737   7.205   3.226   6.274
19315SOL     OW61738   6.976   2.437   5.664
19315SOL    HW161739   6.922   2.416   5.745
19315SOL    HW261740   7.067   2.396   5.673
19316SOL     OW61741   6.113   2.118   5.914
19316SOL    HW161742   6.140   2.059   5.839
19316SOL    HW261743   6.113   2.213   5.883
19317SOL     OW61744   7.340   3.085   7.174
19317SOL    HW161745   7.431   3.046   7.161
19317SOL    HW261746   7.348   3.181   7.198
19318SOL     OW61747   6.650   3.209   6.926
19318SOL    HW161748   6.570   3.186   6.981
19318SOL    HW261749   6.733   3.183   6.975
19319SOL     OW61750   7.178   3.491   7.211
19319SOL    HW161751   7.205   3.525   7.121
19319SOL    HW261752   7.257   3.453   7.257
19320SOL     OW61753   6.697   3.057   6.686
19320SOL    HW161754   6.657   3.101   6.767
19320SOL    HW261755   6.656   3.094   6.603
19321SOL     OW61756   7.224   2.961   6.665
19321SOL    HW161757   7.229   3.042   6.724
19321SOL    HW261758   7.138   2.963   6.614
19322SOL     OW61759   6.501   1.951   6.988
19322SOL    HW161760   6.526   1.931   6.893
19322SOL    HW261761   6.573   2.007   7.030
19323SOL     OW61762   6.566   2.978   7.305
19323SOL    HW161763   6.467   2.984   7.315
19323SOL    HW261764   6.589   2.898   7.249
19324SOL     OW61765   6.291   2.912   5.954
19324SOL    HW161766   6.277   2.919   6.053
19324SOL    HW261767   6.375   2.861   5.936
19325SOL     OW61768   5.996   2.675   6.837
19325SOL    HW161769   6.082   2.687   6.887
19325SOL    HW261770   5.954   2.588   6.864
19326SOL     OW61771   6.860   2.248   6.848
19326SOL    HW161772   6.881   2.322   6.912
19326SOL    HW261773   6.771   2.265   6.805
19327SOL     OW61774   5.650   3.426   6.917
19327SOL    HW161775   5.604   3.508   6.883
19327SOL    HW261776   5.748   3.445   6.926
19328SOL     OW61777   5.953   2.962   6.087
19328SOL    HW161778   5.946   3.045   6.031
19328SOL    HW261779   5.957   2.882   6.027
19329SOL     OW61780   6.152   2.399   6.451
19329SOL    HW161781   6.164   2.465   6.377
19329SOL    HW261782   6.198   2.433   6.534
19330SOL     OW61783   6.838   3.210   5.974
19330SOL    HW161784   6.888   3.287   6.014
19330SOL    HW261785   6.743   3.212   6.006
19331SOL     OW61786   6.858   3.307   6.728
19331SOL    HW161787   6.905   3.320   6.815
19331SOL    HW261788   6.792   3.233   6.737
19332SOL     OW61789   7.168   2.501   6.058
19332SOL    HW161790   7.137   2.562   6.131
19332SOL    HW261791   7.218   2.553   5.989
19333SOL     OW61792   5.940   3.372   6.915
19333SOL    HW161793   5.919   3.328   6.828
19333SOL    HW261794   6.037   3.398   6.918
19334SOL     OW61795   5.988   2.613   7.184
19334SOL    HW161796   6.056   2.668   7.137
19334SOL    HW261797   6.028   2.525   7.211
19335SOL     OW61798   7.173   2.641   7.256
19335SOL    HW161799   7.081   2.679   7.251
19335SOL    HW261800   7.233   2.688   7.191
19336SOL     OW61801   6.599   1.967   7.356
19336SOL    HW161802   6.605   2.052   7.304
19336SOL    HW261803   6.631   1.891   7.299
19337SOL     OW61804   6.090   1.912   7.326
19337SOL    HW161805   6.048   1.855   7.256
19337SOL    HW261806   6.024   1.981   7.358
19338SOL     OW61807   6.159   2.732   6.615
19338SOL    HW161808   6.203   2.821   6.606
19338SOL    HW261809   6.096   2.732   6.692
19339SOL     OW61810   6.946   2.724   6.631
19339SOL    HW161811   6.871   2.724   6.565
19339SOL    HW261812   6.983   2.632   6.640
19340SOL     OW61813   6.795   2.387   5.861
19340SOL    HW161814   6.808   2.303   5.915
19340SOL    HW261815   6.766   2.461   5.921
19341SOL     OW61816   5.893   2.075   6.817
19341SOL    HW161817   5.870   2.112   6.907
19341SOL    HW261818   5.863   1.980   6.811
19342SOL     OW61819   5.623   3.172   6.868
19342SOL    HW161820   5.676   3.123   6.936
19342SOL    HW261821   5.645   3.270   6.873
19343SOL     OW61822   6.318   2.496   6.650
19343SOL    HW161823   6.377   2.470   6.574
19343SOL    HW261824   6.290   2.592   6.639
19344SOL     OW61825   7.314   2.797   7.440
19344SOL    HW161826   7.268   2.790   7.351
19344SOL    HW261827   7.252   2.841   7.506
19345SOL     OW61828   5.893   1.925   6.204
19345SOL    HW161829   5.882   2.019   6.237
19345SOL    HW261830   5.888   1.862   6.281
19346SOL     OW61831   7.208   2.229   5.960
19346SOL    HW161832   7.210   2.153   6.024
19346SOL    HW261833   7.160   2.306   6.000
19347SOL     OW61834   6.609   2.628   6.552
19347SOL    HW161835   6.624   2.649   6.648
19347SOL    HW261836   6.579   2.533   6.543
19348SOL     OW61837   6.566   3.435   7.286
19348SOL    HW161838   6.546   3.479   7.198
19348SOL    HW261839   6.605   3.344   7.270
19349SOL     OW61840   7.445   3.380   7.191
19349SOL    HW161841   7.459   3.407   7.096
19349SOL    HW261842   7.528   3.402   7.244
19350SOL     OW61843   5.936   2.760   7.390
19350SOL    HW161844   6.012   2.804   7.438
19350SOL    HW261845   5.971   2.713   7.308
19351SOL     OW61846   7.126   2.136   5.711
19351SOL    HW161847   7.065   2.061   5.734
19351SOL    HW261848   7.148   2.188   5.794
19352SOL     OW61849   6.889   2.700   5.628
19352SOL    HW161850   6.923   2.607   5.643
19352SOL    HW261851   6.907   2.727   5.533
19353SOL     OW61852   6.654   3.195   6.435
19353SOL    HW161853   6.661   3.111   6.380
19353SOL    HW261854   6.716   3.264   6.399
19354SOL     OW61855   5.905   2.672   6.535
19354SOL    HW161856   5.998   2.708   6.540
19354SOL    HW261857   5.899   2.587   6.587
19355SOL     OW61858   5.925   2.371   6.592
19355SOL    HW161859   5.873   2.288   6.575
19355SOL    HW261860   6.002   2.376   6.528
19356SOL     OW61861   6.724   2.242   7.264
19356SOL    HW161862   6.679   2.305   7.328
19356SOL    HW261863   6.817   2.273   7.247
19357SOL     OW61864   6.746   2.069   7.063
19357SOL    HW161865   6.746   2.133   7.140
19357SOL    HW261866   6.774   2.117   6.980
19358SOL     OW61867   5.594   3.188   5.786
19358SOL    HW161868   5.501   3.209   5.755
19358SOL    HW261869   5.604   3.089   5.799
19359SOL     OW61870   5.674   3.663   6.513
19359SOL    HW161871   5.632   3.577   6.486
19359SOL    HW261872   5.768   3.666   6.479
19360SOL     OW61873   6.090   3.430   6.496
19360SOL    HW161874   6.156   3.504   6.505
19360SOL    HW261875   6.134   3.351   6.454
19361SOL     OW61876   6.588   2.658   6.824
19361SOL    HW161877   6.629   2.626   6.910
19361SOL    HW261878   6.492   2.631   6.821
19362SOL     OW61879   5.626   2.406   6.700
19362SOL    HW161880   5.711   2.373   6.659
19362SOL    HW261881   5.639   2.421   6.798
19363SOL     OW61882   5.775   2.382   7.308
19363SOL    HW161883   5.834   2.342   7.238
19363SOL    HW261884   5.717   2.453   7.267
19364SOL     OW61885   6.955   2.812   7.246
19364SOL    HW161886   6.994   2.901   7.266
19364SOL    HW261887   6.965   2.792   7.149
19365SOL     OW61888   6.401   2.434   5.911
19365SOL    HW161889   6.408   2.345   5.865
19365SOL    HW261890   6.307   2.468   5.903
19366SOL     OW61891   7.243   2.466   6.792
19366SOL    HW161892   7.205   2.397   6.854
19366SOL    HW261893   7.325   2.430   6.748
19367SOL     OW61894   5.838   3.426   7.330
19367SOL    HW161895   5.808   3.483   7.406
19367SOL    HW261896   5.831   3.329   7.356
19368SOL     OW61897   6.257   2.326   6.855
19368SOL    HW161898   6.223   2.237   6.825
19368SOL    HW261899   6.283   2.380   6.775
19369SOL     OW61900   6.516   3.540   7.051
19369SOL    HW161901   6.492   3.522   6.956
19369SOL    HW261902   6.546   3.634   7.061
19370SOL     OW61903   6.059   2.362   5.777
19370SOL    HW161904   6.120   2.442   5.781
19370SOL    HW261905   5.964   2.393   5.784
19371SOL     OW61906   5.745   2.999   7.052
19371SOL    HW161907   5.767   2.938   7.128
19371SOL    HW261908   5.755   2.950   6.966
19372SOL     OW61909   6.933   2.921   6.820
19372SOL    HW161910   6.957   2.858   6.746
19372SOL    HW261911   6.843   2.961   6.802
19373SOL     OW61912   6.888   2.717   5.895
19373SOL    HW161913   6.802   2.686   5.937
19373SOL    HW261914   6.884   2.703   5.796
19374SOL     OW61915   7.345   3.609   6.740
19374SOL    HW161916   7.406   3.639   6.667
19374SOL    HW261917   7.307   3.520   6.718
19375SOL     OW61918   6.838   3.593   6.714
19375SOL    HW161919   6.922   3.598   6.660
19375SOL    HW261920   6.815   3.497   6.732
19376SOL     OW61921   5.669   3.120   6.608
19376SOL    HW161922   5.664   3.119   6.708
19376SOL    HW261923   5.586   3.079   6.570
19377SOL     OW61924   6.274   3.524   7.302
19377SOL    HW161925   6.218   3.605   7.311
19377SOL    HW261926   6.326   3.528   7.216
19378SOL     OW61927   7.312   1.997   6.109
19378SOL    HW161928   7.385   1.980   6.042
19378SOL    HW261929   7.281   1.910   6.147
19379SOL     OW61930   6.974   3.435   6.063
19379SOL    HW161931   7.041   3.447   5.989
19379SOL    HW261932   6.934   3.524   6.086
19380SOL     OW61933   5.716   3.656   7.437
19380SOL    HW161934   5.675   3.582   7.490
19380SOL    HW261935   5.780   3.707   7.495
19381SOL     OW61936   6.866   2.789   6.258
19381SOL    HW161937   6.926   2.708   6.260
19381SOL    HW261938   6.906   2.858   6.198
19382SOL     OW61939   6.416   3.135   7.008
19382SOL    HW161940   6.411   3.168   7.103
19382SOL    HW261941   6.330   3.154   6.962
19383SOL     OW61942   6.258   3.478   5.740
19383SOL    HW161943   6.267   3.488   5.641
19383SOL    HW261944   6.218   3.389   5.761
19384SOL     OW61945   7.236   3.582   6.980
19384SOL    HW161946   7.289   3.592   6.896
19384SOL    HW261947   7.209   3.672   7.014
19385SOL     OW61948   5.849   2.188   6.306
19385SOL    HW161949   5.770   2.239   6.272
19385SOL    HW261950   5.840   2.173   6.404
19386SOL     OW61951   6.780   3.474   5.617
19386SOL    HW161952   6.786   3.381   5.654
19386SOL    HW261953   6.721   3.474   5.537
19387SOL     OW61954   6.408   2.864   6.958
19387SOL    HW161955   6.448   2.863   6.866
19387SOL    HW261956   6.418   2.956   6.998
19388SOL     OW61957   6.502   2.772   5.877
19388SOL    HW161958   6.565   2.810   5.809
19388SOL    HW261959   6.542   2.689   5.916
19389SOL     OW61960   7.090   3.469   5.630
19389SOL    HW161961   6.998   3.506   5.637
19389SOL    HW261962   7.128   3.489   5.540
19390SOL     OW61963   5.958   3.150   7.076
19390SOL    HW161964   5.945   3.243   7.042
19390SOL    HW261965   5.874   3.098   7.063
19391SOL     OW61966   7.200   3.154   6.875
19391SOL    HW161967   7.260   3.157   6.955
19391SOL    HW261968   7.125   3.218   6.888
19392SOL     OW61969   6.625   2.960   6.282
19392SOL    HW161970   6.555   2.913   6.336
19392SOL    HW261971   6.684   2.892   6.239
19393SOL     OW61972   6.600   2.098   6.557
19393SOL    HW161973   6.592   2.062   6.464
19393SOL    HW261974   6.598   2.022   6.622
19394SOL     OW61975   6.176   3.349   6.077
19394SOL    HW161976   6.218   3.291   6.007
19394SOL    HW261977   6.132   3.428   6.033
19395SOL     OW61978   7.295   2.247   6.967
19395SOL    HW161979   7.368   2.316   6.971
19395SOL    HW261980   7.323   2.172   6.908
19396SOL     OW61981   5.841   3.210   5.876
19396SOL    HW161982   5.745   3.211   5.849
19396SOL    HW261983   5.853   3.263   5.960
19397SOL     OW61984   5.691   2.875   7.312
19397SOL    HW161985   5.614   2.842   7.366
19397SOL    HW261986   5.776   2.845   7.354
19398SOL     OW61987   6.258   2.065   7.075
19398SOL    HW161988   6.348   2.049   7.035
19398SOL    HW261989   6.266   2.070   7.174
19399SOL     OW61990   5.661   2.207   5.619
19399SOL    HW161991   5.569   2.179   5.590
19399SOL    HW261992   5.692   2.284   5.563
19400SOL     OW61993   7.026   2.718   6.984
19400SOL    HW161994   6.969   2.770   6.921
19400SOL    HW261995   7.122   2.730   6.960
19401SOL     OW61996   5.658   2.028   5.904
19401SOL    HW161997   5.641   2.111   5.850
19401SOL    HW261998   5.748   1.991   5.882
19402SOL     OW61999   6.769   3.197   5.705
19402SOL    HW162000   6.670   3.186   5.707
19402SOL    HW262001   6.803   3.212   5.798
19403SOL     OW62002   6.199   2.704   7.017
19403SOL    HW162003   6.255   2.785   7.000
19403SOL    HW262004   6.258   2.624   7.020
19404SOL     OW62005   7.079   3.629   6.545
19404SOL    HW162006   7.112   3.693   6.476
19404SOL    HW262007   7.145   3.623   6.620
19405SOL     OW62008   6.302   2.427   7.294
19405SOL    HW162009   6.321   2.492   7.368
19405SOL    HW262010   6.362   2.347   7.303
19406SOL     OW62011   7.036   3.082   7.219
19406SOL    HW162012   7.027   3.072   7.318
19406SOL    HW262013   7.132   3.075   7.193
19407SOL     OW62014   5.976   3.603   7.146
19407SOL    HW162015   5.885   3.644   7.144
19407SOL    HW262016   5.969   3.509   7.178
19408SOL     OW62017   7.260   2.745   6.840
19408SOL    HW162018   7.233   2.656   6.803
19408SOL    HW262019   7.261   2.813   6.767
19409SOL     OW62020   6.811   2.187   6.035
19409SOL    HW162021   6.876   2.113   6.024
19409SOL    HW262022   6.831   2.237   6.119
19410SOL     OW62023   6.180   2.607   6.238
19410SOL    HW162024   6.230   2.692   6.219
19410SOL    HW262025   6.092   2.609   6.190
19411SOL     OW62026   7.363   2.204   7.228
19411SOL    HW162027   7.346   2.235   7.134
19411SOL    HW262028   7.279   2.167   7.266
19412SOL     OW62029   7.316   2.796   7.103
19412SOL    HW162030   7.354   2.887   7.118
19412SOL    HW262031   7.308   2.779   7.004
19413SOL     OW62032   6.445   3.236   5.602
19413SOL    HW162033   6.399   3.251   5.690
19413SOL    HW262034   6.489   3.321   5.572
19414SOL     OW62035   6.247   3.652   6.539
19414SOL    HW162036   6.201   3.740   6.526
19414SOL    HW262037   6.346   3.664   6.532
19415SOL     OW62038   6.445   2.818   6.447
19415SOL    HW162039   6.499   2.749   6.495
19415SOL    HW262040   6.413   2.887   6.513
19416SOL     OW62041   6.669   2.846   5.673
19416SOL    HW162042   6.646   2.899   5.591
19416SOL    HW262043   6.750   2.790   5.654
19417SOL     OW62044   7.447   3.431   6.437
19417SOL    HW162045   7.376   3.419   6.367
19417SOL    HW262046   7.448   3.352   6.497
19418SOL     OW62047   5.807   3.176   7.430
19418SOL    HW162048   5.742   3.103   7.409
19418SOL    HW262049   5.811   3.190   7.528
19419SOL     OW62050   5.665   3.102   6.239
19419SOL    HW162051   5.664   3.055   6.327
19419SOL    HW262052   5.747   3.074   6.188
19420SOL     OW62053   6.258   3.253   7.210
19420SOL    HW162054   6.180   3.203   7.248
19420SOL    HW262055   6.255   3.348   7.241
19421SOL     OW62056   7.410   2.054   6.813
19421SOL    HW162057   7.406   1.964   6.857
19421SOL    HW262058   7.413   2.043   6.714
19422SOL     OW62059   6.014   2.286   6.106
19422SOL    HW162060   6.044   2.214   6.044
19422SOL    HW262061   5.975   2.246   6.189
19423SOL     OW62062   7.291   3.349   6.690
19423SOL    HW162063   7.198   3.324   6.663
19423SOL    HW262064   7.317   3.299   6.772
19424SOL     OW62065   5.903   2.409   6.866
19424SOL    HW162066   5.941   2.350   6.938
19424SOL    HW262067   5.943   2.383   6.778
19425SOL     OW62068   6.398   3.448   6.273
19425SOL    HW162069   6.430   3.458   6.179
19425SOL    HW262070   6.319   3.386   6.275
19426SOL     OW62071   7.010   2.076   6.698
19426SOL    HW162072   7.062   2.011   6.753
19426SOL    HW262073   6.961   2.139   6.759
19427SOL     OW62074   6.587   1.896   6.740
19427SOL    HW162075   6.524   1.824   6.709
19427SOL    HW262076   6.680   1.860   6.740
19428SOL     OW62077   6.356   3.192   5.887
19428SOL    HW162078   6.310   3.105   5.904
19428SOL    HW262079   6.447   3.189   5.928
19429SOL     OW62080   6.204   3.429   6.870
19429SOL    HW162081   6.199   3.511   6.927
19429SOL    HW262082   6.293   3.426   6.825
19430SOL     OW62083   6.938   1.914   5.754
19430SOL    HW162084   6.973   1.873   5.670
19430SOL    HW262085   6.848   1.876   5.774
19431SOL     OW62086   6.886   2.315   6.277
19431SOL    HW162087   6.827   2.395   6.281
19431SOL    HW262088   6.901   2.280   6.370
19432SOL     OW62089   5.625   2.939   5.886
19432SOL    HW162090   5.724   2.928   5.877
19432SOL    HW262091   5.585   2.853   5.918
19433SOL     OW62092   6.461   3.508   5.923
19433SOL    HW162093   6.384   3.473   5.869
19433SOL    HW262094   6.429   3.579   5.985
19434SOL     OW62095   5.816   2.490   7.561
19434SOL    HW162096   5.723   2.488   7.598
19434SOL    HW262097   5.817   2.451   7.469
19435SOL     OW62098   5.811   2.137   8.444
19435SOL    HW162099   5.846   2.120   8.536
19435SOL    HW262100   5.723   2.092   8.432
19436SOL     OW62101   5.605   2.230   8.095
19436SOL    HW162102   5.523   2.273   8.134
19436SOL    HW262103   5.577   2.157   8.032
19437SOL     OW62104   6.155   3.137   8.613
19437SOL    HW162105   6.062   3.130   8.576
19437SOL    HW262106   6.166   3.226   8.657
19438SOL     OW62107   7.141   3.373   8.151
19438SOL    HW162108   7.084   3.357   8.232
19438SOL    HW262109   7.082   3.383   8.071
19439SOL     OW62110   6.721   2.565   8.165
19439SOL    HW162111   6.778   2.643   8.140
19439SOL    HW262112   6.661   2.591   8.241
19440SOL     OW62113   7.341   2.469   7.679
19440SOL    HW162114   7.329   2.456   7.580
19440SOL    HW262115   7.311   2.388   7.728
19441SOL     OW62116   6.354   3.006   8.471
19441SOL    HW162117   6.276   3.023   8.531
19441SOL    HW262118   6.388   3.093   8.435
19442SOL     OW62119   6.271   2.874   8.113
19442SOL    HW162120   6.340   2.858   8.183
19442SOL    HW262121   6.198   2.931   8.151
19443SOL     OW62122   6.272   3.023   9.251
19443SOL    HW162123   6.332   3.102   9.265
19443SOL    HW262124   6.186   3.054   9.210
19444SOL     OW62125   5.921   3.297   8.509
19444SOL    HW162126   5.843   3.266   8.456
19444SOL    HW262127   5.979   3.355   8.452
19445SOL     OW62128   7.046   3.367   8.787
19445SOL    HW162129   7.070   3.461   8.813
19445SOL    HW262130   7.030   3.313   8.869
19446SOL     OW62131   6.024   2.254   8.947
19446SOL    HW162132   6.106   2.198   8.956
19446SOL    HW262133   5.943   2.196   8.951
19447SOL     OW62134   7.189   2.309   8.185
19447SOL    HW162135   7.115   2.355   8.135
19447SOL    HW262136   7.240   2.377   8.238
19448SOL     OW62137   5.817   3.575   7.931
19448SOL    HW162138   5.851   3.652   7.985
19448SOL    HW262139   5.861   3.575   7.841
19449SOL     OW62140   6.713   3.203   9.138
19449SOL    HW162141   6.760   3.203   9.226
19449SOL    HW262142   6.665   3.116   9.127
19450SOL     OW62143   5.816   3.296   7.986
19450SOL    HW162144   5.790   3.392   7.986
19450SOL    HW262145   5.745   3.242   8.031
19451SOL     OW62146   5.826   2.953   8.334
19451SOL    HW162147   5.840   2.869   8.386
19451SOL    HW262148   5.771   3.017   8.389
19452SOL     OW62149   6.206   3.648   8.887
19452SOL    HW162150   6.114   3.631   8.922
19452SOL    HW262151   6.234   3.740   8.913
19453SOL     OW62152   6.192   2.826   7.571
19453SOL    HW162153   6.199   2.910   7.517
19453SOL    HW262154   6.238   2.839   7.659
19454SOL     OW62155   7.180   1.976   8.928
19454SOL    HW162156   7.162   2.043   8.856
19454SOL    HW262157   7.177   2.022   9.017
19455SOL     OW62158   5.708   2.505   8.011
19455SOL    HW162159   5.663   2.417   8.028
19455SOL    HW262160   5.707   2.559   8.095
19456SOL     OW62161   7.428   3.629   7.807
19456SOL    HW162162   7.482   3.600   7.887
19456SOL    HW262163   7.458   3.719   7.778
19457SOL     OW62164   5.613   3.458   7.565
19457SOL    HW162165   5.594   3.362   7.586
19457SOL    HW262166   5.580   3.516   7.640
19458SOL     OW62167   7.275   2.784   8.060
19458SOL    HW162168   7.370   2.755   8.068
19458SOL    HW262169   7.267   2.849   7.985
19459SOL     OW62170   7.227   2.970   7.880
19459SOL    HW162171   7.313   2.972   7.828
19459SOL    HW262172   7.241   3.017   7.968
19460SOL     OW62173   5.699   2.599   9.045
19460SOL    HW162174   5.787   2.586   9.090
19460SOL    HW262175   5.686   2.696   9.023
19461SOL     OW62176   6.199   3.227   8.174
19461SOL    HW162177   6.150   3.140   8.183
19461SOL    HW262178   6.176   3.270   8.087
19462SOL     OW62179   6.879   3.090   8.871
19462SOL    HW162180   6.916   3.017   8.813
19462SOL    HW262181   6.931   3.095   8.956
19463SOL     OW62182   6.395   1.866   7.950
19463SOL    HW162183   6.435   1.957   7.941
19463SOL    HW262184   6.295   1.874   7.956
19464SOL     OW62185   5.783   2.838   8.712
19464SOL    HW162186   5.872   2.793   8.698
19464SOL    HW262187   5.710   2.773   8.693
19465SOL     OW62188   7.111   2.861   7.638
19465SOL    HW162189   7.048   2.785   7.651
19465SOL    HW262190   7.159   2.879   7.724
19466SOL     OW62191   6.773   3.654   9.064
19466SOL    HW162192   6.797   3.714   8.988
19466SOL    HW262193   6.780   3.559   9.034
19467SOL     OW62194   5.903   2.113   9.249
19467SOL    HW162195   5.974   2.184   9.255
19467SOL    HW262196   5.815   2.152   9.277
19468SOL     OW62197   7.052   3.279   8.401
19468SOL    HW162198   6.993   3.285   8.481
19468SOL    HW262199   7.037   3.191   8.355
19469SOL     OW62200   7.253   3.576   8.020
19469SOL    HW162201   7.212   3.553   7.932
19469SOL    HW262202   7.235   3.502   8.085
19470SOL     OW62203   6.184   2.591   7.718
19470SOL    HW162204   6.208   2.660   7.650
19470SOL    HW262205   6.106   2.624   7.772
19471SOL     OW62206   6.867   2.207   8.392
19471SOL    HW162207   6.781   2.157   8.379
19471SOL    HW262208   6.929   2.153   8.448
19472SOL     OW62209   7.162   3.524   7.755
19472SOL    HW162210   7.251   3.570   7.758
19472SOL    HW262211   7.141   3.500   7.660
19473SOL     OW62212   6.393   2.467   8.913
19473SOL    HW162213   6.346   2.464   9.002
19473SOL    HW262214   6.342   2.412   8.847
19474SOL     OW62215   6.980   2.331   9.122
19474SOL    HW162216   6.960   2.374   9.210
19474SOL    HW262217   7.058   2.269   9.131
19475SOL     OW62218   6.559   2.752   9.020
19475SOL    HW162219   6.605   2.668   8.991
19475SOL    HW262220   6.503   2.786   8.945
19476SOL     OW62221   6.577   2.272   8.690
19476SOL    HW162222   6.500   2.306   8.744
19476SOL    HW262223   6.543   2.221   8.611
19477SOL     OW62224   6.627   2.563   7.877
19477SOL    HW162225   6.653   2.559   7.973
19477SOL    HW262226   6.542   2.512   7.863
19478SOL     OW62227   5.662   2.673   8.237
19478SOL    HW162228   5.761   2.661   8.246
19478SOL    HW262229   5.638   2.768   8.258
19479SOL     OW62230   5.716   3.683   9.019
19479SOL    HW162231   5.706   3.668   9.118
19479SOL    HW262232   5.630   3.719   8.983
19480SOL     OW62233   6.451   2.210   7.643
19480SOL    HW162234   6.510   2.273   7.594
19480SOL    HW262235   6.470   2.116   7.614
19481SOL     OW62236   7.305   2.447   9.279
19481SOL    HW162237   7.279   2.536   9.243
19481SOL    HW262238   7.303   2.379   9.206
19482SOL     OW62239   6.948   3.006   7.993
19482SOL    HW162240   7.031   2.977   7.945
19482SOL    HW262241   6.899   3.073   7.937
19483SOL     OW62242   6.136   2.058   8.333
19483SOL    HW162243   6.131   2.053   8.433
19483SOL    HW262244   6.138   2.154   8.304
19484SOL     OW62245   6.594   3.318   7.925
19484SOL    HW162246   6.548   3.390   7.873
19484SOL    HW262247   6.590   3.338   8.023
19485SOL     OW62248   5.937   3.663   8.301
19485SOL    HW162249   5.987   3.577   8.307
19485SOL    HW262250   6.002   3.740   8.298
19486SOL     OW62251   7.381   2.928   8.321
19486SOL    HW162252   7.319   2.913   8.245
19486SOL    HW262253   7.329   2.939   8.406
19487SOL     OW62254   6.813   3.412   8.954
19487SOL    HW162255   6.819   3.335   9.018
19487SOL    HW262256   6.761   3.386   8.874
19488SOL     OW62257   5.907   2.805   7.690
19488SOL    HW162258   5.989   2.844   7.648
19488SOL    HW262259   5.880   2.723   7.641
19489SOL     OW62260   7.044   2.597   8.176
19489SOL    HW162261   7.039   2.532   8.251
19489SOL    HW262262   7.124   2.656   8.189
19490SOL     OW62263   6.047   3.128   9.175
19490SOL    HW162264   5.997   3.129   9.089
19490SOL    HW262265   5.984   3.110   9.251
19491SOL     OW62266   6.697   3.638   7.685
19491SOL    HW162267   6.637   3.576   7.735
19491SOL    HW262268   6.728   3.594   7.600
19492SOL     OW62269   5.788   2.147   8.946
19492SOL    HW162270   5.708   2.207   8.933
19492SOL    HW262271   5.778   2.098   9.032
19493SOL     OW62272   7.218   3.239   7.529
19493SOL    HW162273   7.186   3.333   7.519
19493SOL    HW262274   7.142   3.176   7.517
19494SOL     OW62275   6.050   3.605   7.771
19494SOL    HW162276   6.083   3.644   7.857
19494SOL    HW262277   6.126   3.598   7.706
19495SOL     OW62278   6.986   1.969   7.874
19495SOL    HW162279   6.962   1.932   7.784
19495SOL    HW262280   7.085   1.985   7.878
19496SOL     OW62281   5.835   3.647   8.689
19496SOL    HW162282   5.892   3.582   8.739
19496SOL    HW262283   5.819   3.614   8.596
19497SOL     OW62284   6.526   3.560   8.352
19497SOL    HW162285   6.606   3.503   8.373
19497SOL    HW262286   6.477   3.520   8.275
19498SOL     OW62287   5.968   2.562   7.928
19498SOL    HW162288   6.013   2.472   7.925
19498SOL    HW262289   5.874   2.551   7.961
19499SOL     OW62290   7.133   2.084   9.177
19499SOL    HW162291   7.128   2.121   9.269
19499SOL    HW262292   7.061   2.015   9.165
19500SOL     OW62293   6.200   1.984   7.565
19500SOL    HW162294   6.298   1.962   7.572
19500SOL    HW262295   6.169   1.967   7.472
19501SOL     OW62296   6.367   2.126   9.197
19501SOL    HW162297   6.434   2.065   9.240
19501SOL    HW262298   6.294   2.145   9.262
19502SOL     OW62299   6.474   3.376   8.643
19502SOL    HW162300   6.451   3.351   8.549
19502SOL    HW262301   6.535   3.307   8.682
19503SOL     OW62302   6.937   2.452   8.881
19503SOL    HW162303   6.965   2.409   8.966
19503SOL    HW262304   6.962   2.548   8.882
19504SOL     OW62305   6.389   3.264   8.372
19504SOL    HW162306   6.479   3.278   8.330
19504SOL    HW262307   6.318   3.266   8.301
19505SOL     OW62308   6.508   2.365   8.347
19505SOL    HW162309   6.483   2.356   8.251
19505SOL    HW262310   6.556   2.283   8.378
19506SOL     OW62311   6.125   1.926   7.960
19506SOL    HW162312   6.044   1.927   8.018
19506SOL    HW262313   6.128   2.009   7.905
19507SOL     OW62314   7.020   3.050   7.489
19507SOL    HW162315   7.052   2.974   7.546
19507SOL    HW262316   6.928   3.077   7.519
19508SOL     OW62317   5.883   1.897   7.619
19508SOL    HW162318   5.932   1.981   7.598
19508SOL    HW262319   5.945   1.832   7.664
19509SOL     OW62320   6.521   2.098   7.928
19509SOL    HW162321   6.473   2.139   7.850
19509SOL    HW262322   6.620   2.096   7.909
19510SOL     OW62323   6.662   2.545   8.912
19510SOL    HW162324   6.582   2.484   8.915
19510SOL    HW262325   6.743   2.492   8.888
19511SOL     OW62326   6.813   3.432   8.241
19511SOL    HW162327   6.834   3.506   8.176
19511SOL    HW262328   6.881   3.432   8.314
19512SOL     OW62329   6.045   3.014   8.189
19512SOL    HW162330   5.974   2.987   8.254
19512SOL    HW262331   6.019   2.986   8.096
19513SOL     OW62332   6.857   3.659   8.039
19513SOL    HW162333   6.901   3.723   7.975
19513SOL    HW262334   6.807   3.711   8.109
19514SOL     OW62335   6.618   2.411   7.464
19514SOL    HW162336   6.577   2.493   7.425
19514SOL    HW262337   6.682   2.437   7.537
19515SOL     OW62338   5.664   2.418   8.834
19515SOL    HW162339   5.756   2.417   8.793
19515SOL    HW262340   5.658   2.492   8.901
19516SOL     OW62341   6.147   2.084   8.595
19516SOL    HW162342   6.185   2.000   8.632
19516SOL    HW262343   6.059   2.103   8.639
19517SOL     OW62344   6.452   2.316   8.090
19517SOL    HW162345   6.420   2.388   8.028
19517SOL    HW262346   6.476   2.235   8.037
19518SOL     OW62347   6.603   1.901   8.201
19518SOL    HW162348   6.531   1.906   8.132
19518SOL    HW262349   6.579   1.832   8.270
19519SOL     OW62350   7.015   3.035   8.315
19519SOL    HW162351   6.960   2.951   8.308
19519SOL    HW262352   7.041   3.064   8.223
19520SOL     OW62353   7.052   2.452   8.440
19520SOL    HW162354   7.022   2.357   8.447
19520SOL    HW262355   7.125   2.468   8.506
19521SOL     OW62356   7.443   2.695   7.825
19521SOL    HW162357   7.485   2.631   7.889
19521SOL    HW262358   7.405   2.644   7.747
19522SOL     OW62359   6.074   3.247   7.622
19522SOL    HW162360   5.987   3.232   7.669
19522SOL    HW262361   6.057   3.273   7.527
19523SOL     OW62362   7.250   3.142   8.105
19523SOL    HW162363   7.349   3.150   8.119
19523SOL    HW262364   7.205   3.226   8.136
19524SOL     OW62365   6.976   2.437   7.526
19524SOL    HW162366   6.922   2.416   7.607
19524SOL    HW262367   7.067   2.396   7.535
19525SOL     OW62368   6.113   2.118   7.776
19525SOL    HW162369   6.140   2.059   7.701
19525SOL    HW262370   6.113   2.213   7.745
19526SOL     OW62371   7.340   3.085   9.036
19526SOL    HW162372   7.431   3.046   9.023
19526SOL    HW262373   7.348   3.181   9.060
19527SOL     OW62374   6.650   3.209   8.788
19527SOL    HW162375   6.570   3.186   8.843
19527SOL    HW262376   6.733   3.183   8.837
19528SOL     OW62377   7.178   3.491   9.073
19528SOL    HW162378   7.205   3.525   8.983
19528SOL    HW262379   7.257   3.453   9.119
19529SOL     OW62380   6.697   3.057   8.548
19529SOL    HW162381   6.657   3.101   8.629
19529SOL    HW262382   6.656   3.094   8.465
19530SOL     OW62383   7.224   2.961   8.527
19530SOL    HW162384   7.229   3.042   8.586
19530SOL    HW262385   7.138   2.963   8.476
19531SOL     OW62386   6.501   1.951   8.850
19531SOL    HW162387   6.526   1.931   8.755
19531SOL    HW262388   6.573   2.007   8.892
19532SOL     OW62389   6.566   2.978   9.167
19532SOL    HW162390   6.467   2.984   9.177
19532SOL    HW262391   6.589   2.898   9.111
19533SOL     OW62392   6.291   2.912   7.816
19533SOL    HW162393   6.277   2.919   7.915
19533SOL    HW262394   6.375   2.861   7.798
19534SOL     OW62395   5.996   2.675   8.699
19534SOL    HW162396   6.082   2.687   8.749
19534SOL    HW262397   5.954   2.588   8.726
19535SOL     OW62398   6.860   2.248   8.710
19535SOL    HW162399   6.881   2.322   8.774
19535SOL    HW262400   6.771   2.265   8.667
19536SOL     OW62401   5.650   3.426   8.779
19536SOL    HW162402   5.604   3.508   8.745
19536SOL    HW262403   5.748   3.445   8.788
19537SOL     OW62404   5.953   2.962   7.949
19537SOL    HW162405   5.946   3.045   7.893
19537SOL    HW262406   5.957   2.882   7.889
19538SOL     OW62407   6.152   2.399   8.313
19538SOL    HW162408   6.164   2.465   8.239
19538SOL    HW262409   6.198   2.433   8.396
19539SOL     OW62410   6.838   3.210   7.836
19539SOL    HW162411   6.888   3.287   7.876
19539SOL    HW262412   6.743   3.212   7.868
19540SOL     OW62413   6.858   3.307   8.590
19540SOL    HW162414   6.905   3.320   8.677
19540SOL    HW262415   6.792   3.233   8.599
19541SOL     OW62416   7.168   2.501   7.920
19541SOL    HW162417   7.137   2.562   7.993
19541SOL    HW262418   7.218   2.553   7.851
19542SOL     OW62419   5.940   3.372   8.777
19542SOL    HW162420   5.919   3.328   8.690
19542SOL    HW262421   6.037   3.398   8.780
19543SOL     OW62422   5.988   2.613   9.046
19543SOL    HW162423   6.056   2.668   8.999
19543SOL    HW262424   6.028   2.525   9.073
19544SOL     OW62425   7.173   2.641   9.118
19544SOL    HW162426   7.081   2.679   9.113
19544SOL    HW262427   7.233   2.688   9.053
19545SOL     OW62428   6.599   1.967   9.218
19545SOL    HW162429   6.605   2.052   9.166
19545SOL    HW262430   6.631   1.891   9.161
19546SOL     OW62431   6.090   1.912   9.188
19546SOL    HW162432   6.048   1.855   9.118
19546SOL    HW262433   6.024   1.981   9.220
19547SOL     OW62434   6.159   2.732   8.477
19547SOL    HW162435   6.203   2.821   8.468
19547SOL    HW262436   6.096   2.732   8.554
19548SOL     OW62437   6.946   2.724   8.493
19548SOL    HW162438   6.871   2.724   8.427
19548SOL    HW262439   6.983   2.632   8.502
19549SOL     OW62440   6.795   2.387   7.723
19549SOL    HW162441   6.808   2.303   7.777
19549SOL    HW262442   6.766   2.461   7.783
19550SOL     OW62443   5.893   2.075   8.679
19550SOL    HW162444   5.870   2.112   8.769
19550SOL    HW262445   5.863   1.980   8.673
19551SOL     OW62446   5.623   3.172   8.730
19551SOL    HW162447   5.676   3.123   8.798
19551SOL    HW262448   5.645   3.270   8.735
19552SOL     OW62449   6.318   2.496   8.512
19552SOL    HW162450   6.377   2.470   8.436
19552SOL    HW262451   6.290   2.592   8.501
19553SOL     OW62452   7.314   2.797   9.302
19553SOL    HW162453   7.268   2.790   9.213
19553SOL    HW262454   7.252   2.841   9.368
19554SOL     OW62455   5.893   1.925   8.066
19554SOL    HW162456   5.882   2.019   8.099
19554SOL    HW262457   5.888   1.862   8.143
19555SOL     OW62458   7.208   2.229   7.822
19555SOL    HW162459   7.210   2.153   7.886
19555SOL    HW262460   7.160   2.306   7.862
19556SOL     OW62461   6.609   2.628   8.414
19556SOL    HW162462   6.624   2.649   8.510
19556SOL    HW262463   6.579   2.533   8.405
19557SOL     OW62464   6.566   3.435   9.148
19557SOL    HW162465   6.546   3.479   9.060
19557SOL    HW262466   6.605   3.344   9.132
19558SOL     OW62467   7.445   3.380   9.053
19558SOL    HW162468   7.459   3.407   8.958
19558SOL    HW262469   7.528   3.402   9.106
19559SOL     OW62470   5.936   2.760   9.252
19559SOL    HW162471   6.012   2.804   9.300
19559SOL    HW262472   5.971   2.713   9.170
19560SOL     OW62473   7.126   2.136   7.573
19560SOL    HW162474   7.065   2.061   7.596
19560SOL    HW262475   7.148   2.188   7.656
19561SOL     OW62476   6.889   2.700   7.490
19561SOL    HW162477   6.923   2.607   7.505
19561SOL    HW262478   6.907   2.727   7.395
19562SOL     OW62479   6.654   3.195   8.297
19562SOL    HW162480   6.661   3.111   8.242
19562SOL    HW262481   6.716   3.264   8.261
19563SOL     OW62482   5.905   2.672   8.397
19563SOL    HW162483   5.998   2.708   8.402
19563SOL    HW262484   5.899   2.587   8.449
19564SOL     OW62485   5.925   2.371   8.454
19564SOL    HW162486   5.873   2.288   8.437
19564SOL    HW262487   6.002   2.376   8.390
19565SOL     OW62488   6.724   2.242   9.126
19565SOL    HW162489   6.679   2.305   9.190
19565SOL    HW262490   6.817   2.273   9.109
19566SOL     OW62491   6.746   2.069   8.925
19566SOL    HW162492   6.746   2.133   9.002
19566SOL    HW262493   6.774   2.117   8.842
19567SOL     OW62494   5.594   3.188   7.648
19567SOL    HW162495   5.501   3.209   7.617
19567SOL    HW262496   5.604   3.089   7.661
19568SOL     OW62497   5.674   3.663   8.375
19568SOL    HW162498   5.632   3.577   8.348
19568SOL    HW262499   5.768   3.666   8.341
19569SOL     OW62500   6.090   3.430   8.358
19569SOL    HW162501   6.156   3.504   8.367
19569SOL    HW262502   6.134   3.351   8.316
19570SOL     OW62503   6.588   2.658   8.686
19570SOL    HW162504   6.629   2.626   8.772
19570SOL    HW262505   6.492   2.631   8.683
19571SOL     OW62506   5.626   2.406   8.562
19571SOL    HW162507   5.711   2.373   8.521
19571SOL    HW262508   5.639   2.421   8.660
19572SOL     OW62509   5.775   2.382   9.170
19572SOL    HW162510   5.834   2.342   9.100
19572SOL    HW262511   5.717   2.453   9.129
19573SOL     OW62512   6.955   2.812   9.108
19573SOL    HW162513   6.994   2.901   9.128
19573SOL    HW262514   6.965   2.792   9.011
19574SOL     OW62515   6.401   2.434   7.773
19574SOL    HW162516   6.408   2.345   7.727
19574SOL    HW262517   6.307   2.468   7.765
19575SOL     OW62518   7.243   2.466   8.654
19575SOL    HW162519   7.205   2.397   8.716
19575SOL    HW262520   7.325   2.430   8.610
19576SOL     OW62521   5.838   3.426   9.192
19576SOL    HW162522   5.808   3.483   9.268
19576SOL    HW262523   5.831   3.329   9.218
19577SOL     OW62524   6.257   2.326   8.717
19577SOL    HW162525   6.223   2.237   8.687
19577SOL    HW262526   6.283   2.380   8.637
19578SOL     OW62527   6.516   3.540   8.913
19578SOL    HW162528   6.492   3.522   8.818
19578SOL    HW262529   6.546   3.634   8.923
19579SOL     OW62530   6.059   2.362   7.639
19579SOL    HW162531   6.120   2.442   7.643
19579SOL    HW262532   5.964   2.393   7.646
19580SOL     OW62533   5.745   2.999   8.914
19580SOL    HW162534   5.767   2.938   8.990
19580SOL    HW262535   5.755   2.950   8.828
19581SOL     OW62536   6.933   2.921   8.682
19581SOL    HW162537   6.957   2.858   8.608
19581SOL    HW262538   6.843   2.961   8.664
19582SOL     OW62539   6.888   2.717   7.757
19582SOL    HW162540   6.802   2.686   7.799
19582SOL    HW262541   6.884   2.703   7.658
19583SOL     OW62542   7.345   3.609   8.602
19583SOL    HW162543   7.406   3.639   8.529
19583SOL    HW262544   7.307   3.520   8.580
19584SOL     OW62545   6.838   3.593   8.576
19584SOL    HW162546   6.922   3.598   8.522
19584SOL    HW262547   6.815   3.497   8.594
19585SOL     OW62548   5.669   3.120   8.470
19585SOL    HW162549   5.664   3.119   8.570
19585SOL    HW262550   5.586   3.079   8.432
19586SOL     OW62551   6.274   3.524   9.164
19586SOL    HW162552   6.218   3.605   9.173
19586SOL    HW262553   6.326   3.528   9.078
19587SOL     OW62554   7.312   1.997   7.971
19587SOL    HW162555   7.385   1.980   7.904
19587SOL    HW262556   7.281   1.910   8.009
19588SOL     OW62557   6.974   3.435   7.925
19588SOL    HW162558   7.041   3.447   7.851
19588SOL    HW262559   6.934   3.524   7.948
19589SOL     OW62560   5.716   3.656   9.299
19589SOL    HW162561   5.675   3.582   9.352
19589SOL    HW262562   5.780   3.707   9.357
19590SOL     OW62563   6.866   2.789   8.120
19590SOL    HW162564   6.926   2.708   8.122
19590SOL    HW262565   6.906   2.858   8.060
19591SOL     OW62566   6.416   3.135   8.870
19591SOL    HW162567   6.411   3.168   8.965
19591SOL    HW262568   6.330   3.154   8.824
19592SOL     OW62569   6.258   3.478   7.602
19592SOL    HW162570   6.267   3.488   7.503
19592SOL    HW262571   6.218   3.389   7.623
19593SOL     OW62572   7.236   3.582   8.842
19593SOL    HW162573   7.289   3.592   8.758
19593SOL    HW262574   7.209   3.672   8.876
19594SOL     OW62575   7.427   2.037   8.411
19594SOL    HW162576   7.466   1.952   8.375
19594SOL    HW262577   7.329   2.039   8.392
19595SOL     OW62578   5.849   2.188   8.168
19595SOL    HW162579   5.770   2.239   8.134
19595SOL    HW262580   5.840   2.173   8.266
19596SOL     OW62581   6.780   3.474   7.479
19596SOL    HW162582   6.786   3.381   7.516
19596SOL    HW262583   6.721   3.474   7.399
19597SOL     OW62584   6.408   2.864   8.820
19597SOL    HW162585   6.448   2.863   8.728
19597SOL    HW262586   6.418   2.956   8.860
19598SOL     OW62587   6.502   2.772   7.739
19598SOL    HW162588   6.565   2.810   7.671
19598SOL    HW262589   6.542   2.689   7.778
19599SOL     OW62590   7.090   3.469   7.492
19599SOL    HW162591   6.998   3.506   7.499
19599SOL    HW262592   7.128   3.489   7.402
19600SOL     OW62593   5.958   3.150   8.938
19600SOL    HW162594   5.945   3.243   8.904
19600SOL    HW262595   5.874   3.098   8.925
19601SOL     OW62596   7.200   3.154   8.737
19601SOL    HW162597   7.260   3.157   8.817
19601SOL    HW262598   7.125   3.218   8.750
19602SOL     OW62599   6.625   2.960   8.144
19602SOL    HW162600   6.555   2.913   8.198
19602SOL    HW262601   6.684   2.892   8.101
19603SOL     OW62602   6.600   2.098   8.419
19603SOL    HW162603   6.592   2.062   8.326
19603SOL    HW262604   6.598   2.022   8.484
19604SOL     OW62605   6.176   3.349   7.939
19604SOL    HW162606   6.218   3.291   7.869
19604SOL    HW262607   6.132   3.428   7.895
19605SOL     OW62608   7.295   2.247   8.829
19605SOL    HW162609   7.368   2.316   8.833
19605SOL    HW262610   7.323   2.172   8.770
19606SOL     OW62611   5.841   3.210   7.738
19606SOL    HW162612   5.745   3.211   7.711
19606SOL    HW262613   5.853   3.263   7.822
19607SOL     OW62614   5.691   2.875   9.174
19607SOL    HW162615   5.614   2.842   9.228
19607SOL    HW262616   5.776   2.845   9.216
19608SOL     OW62617   6.258   2.065   8.937
19608SOL    HW162618   6.348   2.049   8.897
19608SOL    HW262619   6.266   2.070   9.036
19609SOL     OW62620   5.661   2.207   7.481
19609SOL    HW162621   5.569   2.179   7.452
19609SOL    HW262622   5.692   2.284   7.425
19610SOL     OW62623   7.026   2.718   8.846
19610SOL    HW162624   6.969   2.770   8.783
19610SOL    HW262625   7.122   2.730   8.822
19611SOL     OW62626   5.658   2.028   7.766
19611SOL    HW162627   5.641   2.111   7.712
19611SOL    HW262628   5.748   1.991   7.744
19612SOL     OW62629   6.769   3.197   7.567
19612SOL    HW162630   6.670   3.186   7.569
19612SOL    HW262631   6.803   3.212   7.660
19613SOL     OW62632   6.199   2.704   8.879
19613SOL    HW162633   6.255   2.785   8.862
19613SOL    HW262634   6.258   2.624   8.882
19614SOL     OW62635   7.079   3.629   8.407
19614SOL    HW162636   7.112   3.693   8.338
19614SOL    HW262637   7.145   3.623   8.482
19615SOL     OW62638   6.302   2.427   9.156
19615SOL    HW162639   6.321   2.492   9.230
19615SOL    HW262640   6.362   2.347   9.165
19616SOL     OW62641   7.036   3.082   9.081
19616SOL    HW162642   7.027   3.072   9.180
19616SOL    HW262643   7.132   3.075   9.055
19617SOL     OW62644   5.976   3.603   9.008
19617SOL    HW162645   5.885   3.644   9.006
19617SOL    HW262646   5.969   3.509   9.040
19618SOL     OW62647   7.260   2.745   8.702
19618SOL    HW162648   7.233   2.656   8.665
19618SOL    HW262649   7.261   2.813   8.629
19619SOL     OW62650   6.811   2.187   7.897
19619SOL    HW162651   6.876   2.113   7.886
19619SOL    HW262652   6.831   2.237   7.981
19620SOL     OW62653   6.180   2.607   8.100
19620SOL    HW162654   6.230   2.692   8.081
19620SOL    HW262655   6.092   2.609   8.052
19621SOL     OW62656   7.363   2.204   9.090
19621SOL    HW162657   7.346   2.235   8.996
19621SOL    HW262658   7.279   2.167   9.128
19622SOL     OW62659   7.316   2.796   8.965
19622SOL    HW162660   7.354   2.887   8.980
19622SOL    HW262661   7.308   2.779   8.866
19623SOL     OW62662   6.445   3.236   7.464
19623SOL    HW162663   6.399   3.251   7.552
19623SOL    HW262664   6.489   3.321   7.434
19624SOL     OW62665   6.247   3.652   8.401
19624SOL    HW162666   6.201   3.740   8.388
19624SOL    HW262667   6.346   3.664   8.394
19625SOL     OW62668   6.445   2.818   8.309
19625SOL    HW162669   6.499   2.749   8.357
19625SOL    HW262670   6.413   2.887   8.375
19626SOL     OW62671   6.669   2.846   7.535
19626SOL    HW162672   6.646   2.899   7.453
19626SOL    HW262673   6.750   2.790   7.516
19627SOL     OW62674   7.447   3.431   8.299
19627SOL    HW162675   7.376   3.419   8.229
19627SOL    HW262676   7.448   3.352   8.359
19628SOL     OW62677   5.807   3.176   9.292
19628SOL    HW162678   5.742   3.103   9.271
19628SOL    HW262679   5.811   3.190   9.390
19629SOL     OW62680   5.665   3.102   8.101
19629SOL    HW162681   5.664   3.055   8.189
19629SOL    HW262682   5.747   3.074   8.050
19630SOL     OW62683   6.258   3.253   9.072
19630SOL    HW162684   6.180   3.203   9.110
19630SOL    HW262685   6.255   3.348   9.103
19631SOL     OW62686   7.410   2.054   8.675
19631SOL    HW162687   7.406   1.964   8.719
19631SOL    HW262688   7.413   2.043   8.576
19632SOL     OW62689   6.014   2.286   7.968
19632SOL    HW162690   6.044   2.214   7.906
19632SOL    HW262691   5.975   2.246   8.051
19633SOL     OW62692   7.291   3.349   8.552
19633SOL    HW162693   7.198   3.324   8.525
19633SOL    HW262694   7.317   3.299   8.634
19634SOL     OW62695   5.903   2.409   8.728
19634SOL    HW162696   5.941   2.350   8.800
19634SOL    HW262697   5.943   2.383   8.640
19635SOL     OW62698   6.398   3.448   8.135
19635SOL    HW162699   6.430   3.458   8.041
19635SOL    HW262700   6.319   3.386   8.137
19636SOL     OW62701   7.010   2.076   8.560
19636SOL    HW162702   7.062   2.011   8.615
19636SOL    HW262703   6.961   2.139   8.621
19637SOL     OW62704   6.587   1.896   8.602
19637SOL    HW162705   6.524   1.824   8.571
19637SOL    HW262706   6.680   1.860   8.602
19638SOL     OW62707   6.356   3.192   7.749
19638SOL    HW162708   6.310   3.105   7.766
19638SOL    HW262709   6.447   3.189   7.790
19639SOL     OW62710   6.204   3.429   8.732
19639SOL    HW162711   6.199   3.511   8.789
19639SOL    HW262712   6.293   3.426   8.687
19640SOL     OW62713   6.938   1.914   7.616
19640SOL    HW162714   6.973   1.873   7.532
19640SOL    HW262715   6.848   1.876   7.636
19641SOL     OW62716   6.886   2.315   8.139
19641SOL    HW162717   6.827   2.395   8.143
19641SOL    HW262718   6.901   2.280   8.232
19642SOL     OW62719   7.179   2.083   8.330
19642SOL    HW162720   7.095   2.082   8.384
19642SOL    HW262721   7.181   2.166   8.274
19643SOL     OW62722   5.625   2.939   7.748
19643SOL    HW162723   5.724   2.928   7.739
19643SOL    HW262724   5.585   2.853   7.780
19644SOL     OW62725   6.461   3.508   7.785
19644SOL    HW162726   6.384   3.473   7.731
19644SOL    HW262727   6.429   3.579   7.847
19645SOL     OW62728   5.816   2.490   9.423
19645SOL    HW162729   5.723   2.488   9.460
19645SOL    HW262730   5.817   2.451   9.331
19646SOL     OW62731   7.341   2.469   9.541
19646SOL    HW162732   7.329   2.456   9.442
19646SOL    HW262733   7.311   2.388   9.590
19647SOL     OW62734   5.817   3.575   9.793
19647SOL    HW162735   5.851   3.652   9.847
19647SOL    HW262736   5.861   3.575   9.703
19648SOL     OW62737   5.816   3.296   9.848
19648SOL    HW162738   5.790   3.392   9.848
19648SOL    HW262739   5.745   3.242   9.893
19649SOL     OW62740   5.708   2.505   9.873
19649SOL    HW162741   5.663   2.417   9.890
19649SOL    HW262742   5.707   2.559   9.957
19650SOL     OW62743   7.428   3.629   9.669
19650SOL    HW162744   7.482   3.600   9.749
19650SOL    HW262745   7.458   3.719   9.640
19651SOL     OW62746   5.613   3.458   9.427
19651SOL    HW162747   5.594   3.362   9.448
19651SOL    HW262748   5.580   3.516   9.502
19652SOL     OW62749   7.275   2.784   9.922
19652SOL    HW162750   7.370   2.755   9.930
19652SOL    HW262751   7.267   2.849   9.847
19653SOL     OW62752   7.227   2.970   9.742
19653SOL    HW162753   7.313   2.972   9.690
19653SOL    HW262754   7.241   3.017   9.830
19654SOL     OW62755   6.199   3.227  10.036
19654SOL    HW162756   6.150   3.140  10.045
19654SOL    HW262757   6.176   3.270   9.949
19655SOL     OW62758   6.395   1.866   9.812
19655SOL    HW162759   6.435   1.957   9.803
19655SOL    HW262760   6.295   1.874   9.818
19656SOL     OW62761   7.111   2.861   9.500
19656SOL    HW162762   7.048   2.785   9.513
19656SOL    HW262763   7.159   2.879   9.586
19657SOL     OW62764   7.162   3.524   9.617
19657SOL    HW162765   7.251   3.570   9.620
19657SOL    HW262766   7.141   3.500   9.522
19658SOL     OW62767   5.662   2.673  10.099
19658SOL    HW162768   5.761   2.661  10.108
19658SOL    HW262769   5.638   2.768  10.120
19659SOL     OW62770   6.451   2.210   9.505
19659SOL    HW162771   6.510   2.273   9.456
19659SOL    HW262772   6.470   2.116   9.476
19660SOL     OW62773   6.594   3.318   9.787
19660SOL    HW162774   6.548   3.390   9.735
19660SOL    HW262775   6.590   3.338   9.885
19661SOL     OW62776   5.937   3.663  10.163
19661SOL    HW162777   5.987   3.577  10.169
19661SOL    HW262778   6.002   3.740  10.160
19662SOL     OW62779   6.697   3.638   9.547
19662SOL    HW162780   6.637   3.576   9.597
19662SOL    HW262781   6.728   3.594   9.462
19663SOL     OW62782   7.218   3.239   9.391
19663SOL    HW162783   7.186   3.333   9.381
19663SOL    HW262784   7.142   3.176   9.379
19664SOL     OW62785   6.050   3.605   9.633
19664SOL    HW162786   6.083   3.644   9.719
19664SOL    HW262787   6.126   3.598   9.568
19665SOL     OW62788   6.986   1.969   9.736
19665SOL    HW162789   6.962   1.932   9.646
19665SOL    HW262790   7.085   1.985   9.740
19666SOL     OW62791   5.968   2.562   9.790
19666SOL    HW162792   6.013   2.472   9.787
19666SOL    HW262793   5.874   2.551   9.823
19667SOL     OW62794   6.200   1.984   9.427
19667SOL    HW162795   6.298   1.962   9.434
19667SOL    HW262796   6.169   1.967   9.334
19668SOL     OW62797   6.125   1.926   9.822
19668SOL    HW162798   6.044   1.927   9.880
19668SOL    HW262799   6.128   2.009   9.767
19669SOL     OW62800   7.020   3.050   9.351
19669SOL    HW162801   7.052   2.974   9.408
19669SOL    HW262802   6.928   3.077   9.381
19670SOL     OW62803   5.883   1.897   9.481
19670SOL    HW162804   5.932   1.981   9.460
19670SOL    HW262805   5.945   1.832   9.526
19671SOL     OW62806   6.045   3.014  10.051
19671SOL    HW162807   5.974   2.987  10.116
19671SOL    HW262808   6.019   2.986   9.958
19672SOL     OW62809   6.618   2.411   9.326
19672SOL    HW162810   6.577   2.493   9.287
19672SOL    HW262811   6.682   2.437   9.399
19673SOL     OW62812   7.443   2.695   9.687
19673SOL    HW162813   7.485   2.631   9.751
19673SOL    HW262814   7.405   2.644   9.609
19674SOL     OW62815   6.074   3.247   9.484
19674SOL    HW162816   5.987   3.232   9.531
19674SOL    HW262817   6.057   3.273   9.389
19675SOL     OW62818   6.976   2.437   9.388
19675SOL    HW162819   6.922   2.416   9.469
19675SOL    HW262820   7.067   2.396   9.397
19676SOL     OW62821   6.113   2.118   9.638
19676SOL    HW162822   6.140   2.059   9.563
19676SOL    HW262823   6.113   2.213   9.607
19677SOL     OW62824   5.953   2.962   9.811
19677SOL    HW162825   5.946   3.045   9.755
19677SOL    HW262826   5.957   2.882   9.751
19678SOL     OW62827   7.168   2.501   9.782
19678SOL    HW162828   7.137   2.562   9.855
19678SOL    HW262829   7.218   2.553   9.713
19679SOL     OW62830   6.795   2.387   9.585
19679SOL    HW162831   6.808   2.303   9.639
19679SOL    HW262832   6.766   2.461   9.645
19680SOL     OW62833   5.893   1.925   9.928
19680SOL    HW162834   5.882   2.019   9.961
19680SOL    HW262835   5.888   1.862  10.005
19681SOL     OW62836   7.208   2.229   9.684
19681SOL    HW162837   7.210   2.153   9.748
19681SOL    HW262838   7.160   2.306   9.724
19682SOL     OW62839   7.126   2.136   9.435
19682SOL    HW162840   7.065   2.061   9.458
19682SOL    HW262841   7.148   2.188   9.518
19683SOL     OW62842   6.889   2.700   9.352
19683SOL    HW162843   6.923   2.607   9.367
19683SOL    HW262844   6.907   2.727   9.257
19684SOL     OW62845   5.594   3.188   9.510
19684SOL    HW162846   5.501   3.209   9.479
19684SOL    HW262847   5.604   3.089   9.523
19685SOL     OW62848   6.059   2.362   9.501
19685SOL    HW162849   6.120   2.442   9.505
19685SOL    HW262850   5.964   2.393   9.508
19686SOL     OW62851   6.888   2.717   9.619
19686SOL    HW162852   6.802   2.686   9.661
19686SOL    HW262853   6.884   2.703   9.520
19687SOL     OW62854   7.312   1.997   9.833
19687SOL    HW162855   7.385   1.980   9.766
19687SOL    HW262856   7.281   1.910   9.871
19688SOL     OW62857   6.258   3.478   9.464
19688SOL    HW162858   6.267   3.488   9.365
19688SOL    HW262859   6.218   3.389   9.485
19689SOL     OW62860   6.780   3.474   9.341
19689SOL    HW162861   6.786   3.381   9.378
19689SOL    HW262862   6.721   3.474   9.261
19690SOL     OW62863   7.090   3.469   9.354
19690SOL    HW162864   6.998   3.506   9.361
19690SOL    HW262865   7.128   3.489   9.264
19691SOL     OW62866   6.176   3.349   9.801
19691SOL    HW162867   6.218   3.291   9.731
19691SOL    HW262868   6.132   3.428   9.757
19692SOL     OW62869   5.841   3.210   9.600
19692SOL    HW162870   5.745   3.211   9.573
19692SOL    HW262871   5.853   3.263   9.684
19693SOL     OW62872   5.661   2.207   9.343
19693SOL    HW162873   5.569   2.179   9.314
19693SOL    HW262874   5.692   2.284   9.287
19694SOL     OW62875   5.658   2.028   9.628
19694SOL    HW162876   5.641   2.111   9.574
19694SOL    HW262877   5.748   1.991   9.606
19695SOL     OW62878   6.769   3.197   9.429
19695SOL    HW162879   6.670   3.186   9.431
19695SOL    HW262880   6.803   3.212   9.522
19696SOL     OW62881   6.811   2.187   9.759
19696SOL    HW162882   6.876   2.113   9.748
19696SOL    HW262883   6.831   2.237   9.843
19697SOL     OW62884   6.445   3.236   9.326
19697SOL    HW162885   6.399   3.251   9.414
19697SOL    HW262886   6.489   3.321   9.296
19698SOL     OW62887   6.669   2.846   9.397
19698SOL    HW162888   6.646   2.899   9.315
19698SOL    HW262889   6.750   2.790   9.378
19699SOL     OW62890   5.665   3.102   9.963
19699SOL    HW162891   5.664   3.055  10.051
19699SOL    HW262892   5.747   3.074   9.912
19700SOL     OW62893   6.014   2.286   9.830
19700SOL    HW162894   6.044   2.214   9.768
19700SOL    HW262895   5.975   2.246   9.913
19701SOL     OW62896   6.938   1.914   9.478
19701SOL    HW162897   6.973   1.873   9.394
19701SOL    HW262898   6.848   1.876   9.498
19702SOL     OW62899   5.625   2.939   9.610
19702SOL    HW162900   5.724   2.928   9.601
19702SOL    HW262901   5.585   2.853   9.642
19703SOL     OW62902   6.461   3.508   9.647
19703SOL    HW162903   6.384   3.473   9.593
19703SOL    HW262904   6.429   3.579   9.709
19704SOL     OW62905   5.816   4.352   0.113
19704SOL    HW162906   5.723   4.350   0.150
19704SOL    HW262907   5.817   4.313   0.021
19705SOL     OW62908   5.811   3.999   0.996
19705SOL    HW162909   5.846   3.982   1.088
19705SOL    HW262910   5.723   3.954   0.984
19706SOL     OW62911   5.605   4.092   0.647
19706SOL    HW162912   5.523   4.135   0.686
19706SOL    HW262913   5.577   4.019   0.584
19707SOL     OW62914   6.155   4.999   1.165
19707SOL    HW162915   6.062   4.992   1.128
19707SOL    HW262916   6.166   5.088   1.209
19708SOL     OW62917   7.141   5.235   0.703
19708SOL    HW162918   7.084   5.219   0.784
19708SOL    HW262919   7.082   5.245   0.623
19709SOL     OW62920   6.721   4.427   0.717
19709SOL    HW162921   6.778   4.505   0.692
19709SOL    HW262922   6.661   4.453   0.793
19710SOL     OW62923   7.341   4.331   0.231
19710SOL    HW162924   7.329   4.318   0.132
19710SOL    HW262925   7.311   4.250   0.280
19711SOL     OW62926   6.354   4.868   1.023
19711SOL    HW162927   6.276   4.885   1.083
19711SOL    HW262928   6.388   4.955   0.987
19712SOL     OW62929   6.436   4.522   1.823
19712SOL    HW162930   6.432   4.598   1.888
19712SOL    HW262931   6.458   4.558   1.732
19713SOL     OW62932   6.271   4.736   0.665
19713SOL    HW162933   6.340   4.720   0.735
19713SOL    HW262934   6.198   4.793   0.703
19714SOL     OW62935   6.272   4.885   1.803
19714SOL    HW162936   6.332   4.964   1.817
19714SOL    HW262937   6.186   4.916   1.762
19715SOL     OW62938   5.921   5.159   1.061
19715SOL    HW162939   5.843   5.128   1.008
19715SOL    HW262940   5.979   5.217   1.004
19716SOL     OW62941   7.046   5.229   1.339
19716SOL    HW162942   7.070   5.323   1.365
19716SOL    HW262943   7.030   5.175   1.421
19717SOL     OW62944   6.024   4.116   1.499
19717SOL    HW162945   6.106   4.060   1.508
19717SOL    HW262946   5.943   4.058   1.503
19718SOL     OW62947   7.189   4.171   0.737
19718SOL    HW162948   7.115   4.217   0.687
19718SOL    HW262949   7.240   4.239   0.790
19719SOL     OW62950   6.713   5.065   1.690
19719SOL    HW162951   6.760   5.065   1.778
19719SOL    HW262952   6.665   4.978   1.679
19720SOL     OW62953   5.816   5.158   0.538
19720SOL    HW162954   5.790   5.254   0.538
19720SOL    HW262955   5.745   5.104   0.583
19721SOL     OW62956   5.826   4.815   0.886
19721SOL    HW162957   5.840   4.731   0.938
19721SOL    HW262958   5.771   4.879   0.941
19722SOL     OW62959   6.206   5.510   1.439
19722SOL    HW162960   6.114   5.493   1.474
19722SOL    HW262961   6.234   5.602   1.465
19723SOL     OW62962   6.192   4.688   0.123
19723SOL    HW162963   6.199   4.772   0.069
19723SOL    HW262964   6.238   4.701   0.211
19724SOL     OW62965   7.180   3.838   1.480
19724SOL    HW162966   7.162   3.905   1.408
19724SOL    HW262967   7.177   3.884   1.569
19725SOL     OW62968   5.708   4.367   0.563
19725SOL    HW162969   5.663   4.279   0.580
19725SOL    HW262970   5.707   4.421   0.647
19726SOL     OW62971   7.428   5.491   0.359
19726SOL    HW162972   7.482   5.462   0.439
19726SOL    HW262973   7.458   5.581   0.330
19727SOL     OW62974   5.613   5.320   0.117
19727SOL    HW162975   5.594   5.224   0.138
19727SOL    HW262976   5.580   5.378   0.192
19728SOL     OW62977   7.275   4.646   0.612
19728SOL    HW162978   7.370   4.617   0.620
19728SOL    HW262979   7.267   4.711   0.537
19729SOL     OW62980   7.227   4.832   0.432
19729SOL    HW162981   7.313   4.834   0.380
19729SOL    HW262982   7.241   4.879   0.520
19730SOL     OW62983   5.699   4.461   1.597
19730SOL    HW162984   5.787   4.448   1.642
19730SOL    HW262985   5.686   4.558   1.575
19731SOL     OW62986   6.199   5.089   0.726
19731SOL    HW162987   6.150   5.002   0.735
19731SOL    HW262988   6.176   5.132   0.639
19732SOL     OW62989   6.879   4.952   1.423
19732SOL    HW162990   6.916   4.879   1.365
19732SOL    HW262991   6.931   4.957   1.508
19733SOL     OW62992   6.395   3.728   0.502
19733SOL    HW162993   6.435   3.819   0.493
19733SOL    HW262994   6.295   3.736   0.508
19734SOL     OW62995   5.783   4.700   1.264
19734SOL    HW162996   5.872   4.655   1.250
19734SOL    HW262997   5.710   4.635   1.245
19735SOL     OW62998   7.111   4.723   0.190
19735SOL    HW162999   7.048   4.647   0.203
19735SOL    HW263000   7.159   4.741   0.276
19736SOL     OW63001   6.773   5.516   1.616
19736SOL    HW163002   6.797   5.576   1.540
19736SOL    HW263003   6.780   5.421   1.586
19737SOL     OW63004   5.903   3.975   1.801
19737SOL    HW163005   5.974   4.046   1.807
19737SOL    HW263006   5.815   4.014   1.829
19738SOL     OW63007   7.052   5.141   0.953
19738SOL    HW163008   6.993   5.147   1.033
19738SOL    HW263009   7.037   5.053   0.907
19739SOL     OW63010   7.253   5.438   0.572
19739SOL    HW163011   7.212   5.415   0.484
19739SOL    HW263012   7.235   5.364   0.637
19740SOL     OW63013   6.184   4.453   0.270
19740SOL    HW163014   6.208   4.522   0.202
19740SOL    HW263015   6.106   4.486   0.324
19741SOL     OW63016   6.867   4.069   0.944
19741SOL    HW163017   6.781   4.019   0.931
19741SOL    HW263018   6.929   4.015   1.000
19742SOL     OW63019   7.162   5.386   0.307
19742SOL    HW163020   7.251   5.432   0.310
19742SOL    HW263021   7.141   5.362   0.212
19743SOL     OW63022   6.393   4.329   1.465
19743SOL    HW163023   6.346   4.326   1.554
19743SOL    HW263024   6.342   4.274   1.399
19744SOL     OW63025   6.980   4.193   1.674
19744SOL    HW163026   6.960   4.236   1.762
19744SOL    HW263027   7.058   4.131   1.683
19745SOL     OW63028   6.559   4.614   1.572
19745SOL    HW163029   6.605   4.530   1.543
19745SOL    HW263030   6.503   4.648   1.497
19746SOL     OW63031   6.577   4.134   1.242
19746SOL    HW163032   6.500   4.168   1.296
19746SOL    HW263033   6.543   4.083   1.163
19747SOL     OW63034   6.627   4.425   0.429
19747SOL    HW163035   6.653   4.421   0.525
19747SOL    HW263036   6.542   4.374   0.415
19748SOL     OW63037   5.662   4.535   0.789
19748SOL    HW163038   5.761   4.523   0.798
19748SOL    HW263039   5.638   4.630   0.810
19749SOL     OW63040   5.716   5.545   1.571
19749SOL    HW163041   5.706   5.530   1.670
19749SOL    HW263042   5.630   5.581   1.535
19750SOL     OW63043   6.451   4.072   0.195
19750SOL    HW163044   6.510   4.135   0.146
19750SOL    HW263045   6.470   3.978   0.166
19751SOL     OW63046   7.305   4.309   1.831
19751SOL    HW163047   7.279   4.398   1.795
19751SOL    HW263048   7.303   4.241   1.758
19752SOL     OW63049   6.948   4.868   0.545
19752SOL    HW163050   7.031   4.839   0.497
19752SOL    HW263051   6.899   4.935   0.489
19753SOL     OW63052   6.136   3.920   0.885
19753SOL    HW163053   6.131   3.915   0.985
19753SOL    HW263054   6.138   4.016   0.856
19754SOL     OW63055   7.381   4.790   0.873
19754SOL    HW163056   7.319   4.775   0.797
19754SOL    HW263057   7.329   4.801   0.958
19755SOL     OW63058   6.813   5.274   1.506
19755SOL    HW163059   6.819   5.197   1.570
19755SOL    HW263060   6.761   5.248   1.426
19756SOL     OW63061   5.907   4.667   0.242
19756SOL    HW163062   5.989   4.706   0.200
19756SOL    HW263063   5.880   4.585   0.193
19757SOL     OW63064   7.044   4.459   0.728
19757SOL    HW163065   7.039   4.394   0.803
19757SOL    HW263066   7.124   4.518   0.741
19758SOL     OW63067   6.047   4.990   1.727
19758SOL    HW163068   5.997   4.991   1.641
19758SOL    HW263069   5.984   4.972   1.803
19759SOL     OW63070   6.697   5.500   0.237
19759SOL    HW163071   6.637   5.438   0.287
19759SOL    HW263072   6.728   5.456   0.152
19760SOL     OW63073   5.788   4.009   1.498
19760SOL    HW163074   5.708   4.069   1.485
19760SOL    HW263075   5.778   3.960   1.584
19761SOL     OW63076   7.218   5.101   0.081
19761SOL    HW163077   7.186   5.195   0.071
19761SOL    HW263078   7.142   5.038   0.069
19762SOL     OW63079   6.050   5.467   0.323
19762SOL    HW163080   6.083   5.506   0.409
19762SOL    HW263081   6.126   5.460   0.258
19763SOL     OW63082   6.986   3.831   0.426
19763SOL    HW163083   6.962   3.794   0.336
19763SOL    HW263084   7.085   3.847   0.430
19764SOL     OW63085   5.835   5.509   1.241
19764SOL    HW163086   5.892   5.444   1.291
19764SOL    HW263087   5.819   5.476   1.148
19765SOL     OW63088   6.526   5.422   0.904
19765SOL    HW163089   6.606   5.365   0.925
19765SOL    HW263090   6.477   5.382   0.827
19766SOL     OW63091   5.968   4.424   0.480
19766SOL    HW163092   6.013   4.334   0.477
19766SOL    HW263093   5.874   4.413   0.513
19767SOL     OW63094   7.133   3.946   1.729
19767SOL    HW163095   7.128   3.983   1.821
19767SOL    HW263096   7.061   3.877   1.717
19768SOL     OW63097   6.200   3.846   0.117
19768SOL    HW163098   6.298   3.824   0.124
19768SOL    HW263099   6.169   3.829   0.024
19769SOL     OW63100   6.367   3.988   1.749
19769SOL    HW163101   6.434   3.927   1.792
19769SOL    HW263102   6.294   4.007   1.814
19770SOL     OW63103   6.474   5.238   1.195
19770SOL    HW163104   6.451   5.213   1.101
19770SOL    HW263105   6.535   5.169   1.234
19771SOL     OW63106   6.937   4.314   1.433
19771SOL    HW163107   6.965   4.271   1.518
19771SOL    HW263108   6.962   4.410   1.434
19772SOL     OW63109   6.389   5.126   0.924
19772SOL    HW163110   6.479   5.140   0.882
19772SOL    HW263111   6.318   5.128   0.853
19773SOL     OW63112   6.508   4.227   0.899
19773SOL    HW163113   6.483   4.218   0.803
19773SOL    HW263114   6.556   4.145   0.930
19774SOL     OW63115   6.125   3.788   0.512
19774SOL    HW163116   6.044   3.789   0.570
19774SOL    HW263117   6.128   3.871   0.457
19775SOL     OW63118   7.020   4.912   0.041
19775SOL    HW163119   7.052   4.836   0.098
19775SOL    HW263120   6.928   4.939   0.071
19776SOL     OW63121   6.521   3.960   0.480
19776SOL    HW163122   6.473   4.001   0.402
19776SOL    HW263123   6.620   3.958   0.461
19777SOL     OW63124   6.662   4.407   1.464
19777SOL    HW163125   6.582   4.346   1.467
19777SOL    HW263126   6.743   4.354   1.440
19778SOL     OW63127   6.813   5.294   0.793
19778SOL    HW163128   6.834   5.368   0.728
19778SOL    HW263129   6.881   5.294   0.866
19779SOL     OW63130   6.045   4.876   0.741
19779SOL    HW163131   5.974   4.849   0.806
19779SOL    HW263132   6.019   4.848   0.648
19780SOL     OW63133   6.857   5.521   0.591
19780SOL    HW163134   6.901   5.585   0.527
19780SOL    HW263135   6.807   5.573   0.661
19781SOL     OW63136   6.618   4.273   0.016
19781SOL    HW163137   6.577   4.355  -0.023
19781SOL    HW263138   6.682   4.299   0.089
19782SOL     OW63139   5.664   4.280   1.386
19782SOL    HW163140   5.756   4.279   1.345
19782SOL    HW263141   5.658   4.354   1.453
19783SOL     OW63142   6.147   3.946   1.147
19783SOL    HW163143   6.185   3.862   1.184
19783SOL    HW263144   6.059   3.965   1.191
19784SOL     OW63145   6.452   4.178   0.642
19784SOL    HW163146   6.420   4.250   0.580
19784SOL    HW263147   6.476   4.097   0.589
19785SOL     OW63148   6.603   3.763   0.753
19785SOL    HW163149   6.531   3.768   0.684
19785SOL    HW263150   6.579   3.694   0.822
19786SOL     OW63151   7.015   4.897   0.867
19786SOL    HW163152   6.960   4.813   0.860
19786SOL    HW263153   7.041   4.926   0.775
19787SOL     OW63154   7.052   4.314   0.992
19787SOL    HW163155   7.022   4.219   0.999
19787SOL    HW263156   7.125   4.330   1.058
19788SOL     OW63157   7.443   4.557   0.377
19788SOL    HW163158   7.485   4.493   0.441
19788SOL    HW263159   7.405   4.506   0.299
19789SOL     OW63160   6.074   5.109   0.174
19789SOL    HW163161   5.987   5.094   0.221
19789SOL    HW263162   6.057   5.135   0.079
19790SOL     OW63163   7.250   5.004   0.657
19790SOL    HW163164   7.349   5.012   0.671
19790SOL    HW263165   7.205   5.088   0.688
19791SOL     OW63166   6.976   4.299   0.078
19791SOL    HW163167   6.922   4.278   0.159
19791SOL    HW263168   7.067   4.258   0.087
19792SOL     OW63169   6.113   3.980   0.328
19792SOL    HW163170   6.140   3.921   0.253
19792SOL    HW263171   6.113   4.075   0.297
19793SOL     OW63172   7.340   4.947   1.588
19793SOL    HW163173   7.431   4.908   1.575
19793SOL    HW263174   7.348   5.043   1.612
19794SOL     OW63175   6.650   5.071   1.340
19794SOL    HW163176   6.570   5.048   1.395
19794SOL    HW263177   6.733   5.045   1.389
19795SOL     OW63178   7.178   5.353   1.625
19795SOL    HW163179   7.205   5.387   1.535
19795SOL    HW263180   7.257   5.315   1.671
19796SOL     OW63181   6.697   4.919   1.100
19796SOL    HW163182   6.657   4.963   1.181
19796SOL    HW263183   6.656   4.956   1.017
19797SOL     OW63184   7.224   4.823   1.079
19797SOL    HW163185   7.229   4.904   1.138
19797SOL    HW263186   7.138   4.825   1.028
19798SOL     OW63187   6.501   3.813   1.402
19798SOL    HW163188   6.526   3.793   1.307
19798SOL    HW263189   6.573   3.869   1.444
19799SOL     OW63190   6.566   4.840   1.719
19799SOL    HW163191   6.467   4.846   1.729
19799SOL    HW263192   6.589   4.760   1.663
19800SOL     OW63193   6.291   4.774   0.368
19800SOL    HW163194   6.277   4.781   0.467
19800SOL    HW263195   6.375   4.723   0.350
19801SOL     OW63196   5.996   4.537   1.251
19801SOL    HW163197   6.082   4.549   1.301
19801SOL    HW263198   5.954   4.450   1.278
19802SOL     OW63199   6.860   4.110   1.262
19802SOL    HW163200   6.881   4.184   1.326
19802SOL    HW263201   6.771   4.127   1.219
19803SOL     OW63202   5.650   5.288   1.331
19803SOL    HW163203   5.604   5.370   1.297
19803SOL    HW263204   5.748   5.307   1.340
19804SOL     OW63205   5.953   4.824   0.501
19804SOL    HW163206   5.946   4.907   0.445
19804SOL    HW263207   5.957   4.744   0.441
19805SOL     OW63208   6.152   4.261   0.865
19805SOL    HW163209   6.164   4.327   0.791
19805SOL    HW263210   6.198   4.295   0.948
19806SOL     OW63211   6.838   5.072   0.388
19806SOL    HW163212   6.888   5.149   0.428
19806SOL    HW263213   6.743   5.074   0.420
19807SOL     OW63214   6.858   5.169   1.142
19807SOL    HW163215   6.905   5.182   1.229
19807SOL    HW263216   6.792   5.095   1.151
19808SOL     OW63217   7.168   4.363   0.472
19808SOL    HW163218   7.137   4.424   0.545
19808SOL    HW263219   7.218   4.415   0.403
19809SOL     OW63220   5.940   5.234   1.329
19809SOL    HW163221   5.919   5.190   1.242
19809SOL    HW263222   6.037   5.260   1.332
19810SOL     OW63223   5.988   4.475   1.598
19810SOL    HW163224   6.056   4.530   1.551
19810SOL    HW263225   6.028   4.387   1.625
19811SOL     OW63226   7.173   4.503   1.670
19811SOL    HW163227   7.081   4.541   1.665
19811SOL    HW263228   7.233   4.550   1.605
19812SOL     OW63229   6.599   3.829   1.770
19812SOL    HW163230   6.605   3.914   1.718
19812SOL    HW263231   6.631   3.753   1.713
19813SOL     OW63232   6.090   3.774   1.740
19813SOL    HW163233   6.048   3.717   1.670
19813SOL    HW263234   6.024   3.843   1.772
19814SOL     OW63235   6.159   4.594   1.029
19814SOL    HW163236   6.203   4.683   1.020
19814SOL    HW263237   6.096   4.594   1.106
19815SOL     OW63238   6.946   4.586   1.045
19815SOL    HW163239   6.871   4.586   0.979
19815SOL    HW263240   6.983   4.494   1.054
19816SOL     OW63241   6.795   4.249   0.275
19816SOL    HW163242   6.808   4.165   0.329
19816SOL    HW263243   6.766   4.323   0.335
19817SOL     OW63244   5.893   3.937   1.231
19817SOL    HW163245   5.870   3.974   1.321
19817SOL    HW263246   5.863   3.842   1.225
19818SOL     OW63247   5.623   5.034   1.282
19818SOL    HW163248   5.676   4.985   1.350
19818SOL    HW263249   5.645   5.132   1.287
19819SOL     OW63250   6.318   4.358   1.064
19819SOL    HW163251   6.377   4.332   0.988
19819SOL    HW263252   6.290   4.454   1.053
19820SOL     OW63253   7.314   4.659   1.854
19820SOL    HW163254   7.268   4.652   1.765
19820SOL    HW263255   7.252   4.703   1.920
19821SOL     OW63256   5.893   3.787   0.618
19821SOL    HW163257   5.882   3.881   0.651
19821SOL    HW263258   5.888   3.724   0.695
19822SOL     OW63259   7.208   4.091   0.374
19822SOL    HW163260   7.210   4.015   0.438
19822SOL    HW263261   7.160   4.168   0.414
19823SOL     OW63262   6.609   4.490   0.966
19823SOL    HW163263   6.624   4.511   1.062
19823SOL    HW263264   6.579   4.395   0.957
19824SOL     OW63265   6.566   5.297   1.700
19824SOL    HW163266   6.546   5.341   1.612
19824SOL    HW263267   6.605   5.206   1.684
19825SOL     OW63268   7.445   5.242   1.605
19825SOL    HW163269   7.459   5.269   1.510
19825SOL    HW263270   7.528   5.264   1.658
19826SOL     OW63271   5.936   4.622   1.804
19826SOL    HW163272   6.012   4.666   1.852
19826SOL    HW263273   5.971   4.575   1.722
19827SOL     OW63274   7.126   3.998   0.125
19827SOL    HW163275   7.065   3.923   0.148
19827SOL    HW263276   7.148   4.050   0.208
19828SOL     OW63277   6.889   4.562   0.042
19828SOL    HW163278   6.923   4.469   0.057
19828SOL    HW263279   6.907   4.589  -0.053
19829SOL     OW63280   6.654   5.057   0.849
19829SOL    HW163281   6.661   4.973   0.794
19829SOL    HW263282   6.716   5.126   0.813
19830SOL     OW63283   5.905   4.534   0.949
19830SOL    HW163284   5.998   4.570   0.954
19830SOL    HW263285   5.899   4.449   1.001
19831SOL     OW63286   5.925   4.233   1.006
19831SOL    HW163287   5.873   4.150   0.989
19831SOL    HW263288   6.002   4.238   0.942
19832SOL     OW63289   6.724   4.104   1.678
19832SOL    HW163290   6.679   4.167   1.742
19832SOL    HW263291   6.817   4.135   1.661
19833SOL     OW63292   6.746   3.931   1.477
19833SOL    HW163293   6.746   3.995   1.554
19833SOL    HW263294   6.774   3.979   1.394
19834SOL     OW63295   5.594   5.050   0.200
19834SOL    HW163296   5.501   5.071   0.169
19834SOL    HW263297   5.604   4.951   0.213
19835SOL     OW63298   5.674   5.525   0.927
19835SOL    HW163299   5.632   5.439   0.900
19835SOL    HW263300   5.768   5.528   0.893
19836SOL     OW63301   6.588   4.520   1.238
19836SOL    HW163302   6.629   4.488   1.324
19836SOL    HW263303   6.492   4.493   1.235
19837SOL     OW63304   5.626   4.268   1.114
19837SOL    HW163305   5.711   4.235   1.073
19837SOL    HW263306   5.639   4.283   1.212
19838SOL     OW63307   5.775   4.244   1.722
19838SOL    HW163308   5.834   4.204   1.652
19838SOL    HW263309   5.717   4.315   1.681
19839SOL     OW63310   6.955   4.674   1.660
19839SOL    HW163311   6.994   4.763   1.680
19839SOL    HW263312   6.965   4.654   1.563
19840SOL     OW63313   6.401   4.296   0.325
19840SOL    HW163314   6.408   4.207   0.279
19840SOL    HW263315   6.307   4.330   0.317
19841SOL     OW63316   7.243   4.328   1.206
19841SOL    HW163317   7.205   4.259   1.268
19841SOL    HW263318   7.325   4.292   1.162
19842SOL     OW63319   5.838   5.288   1.744
19842SOL    HW163320   5.808   5.345   1.820
19842SOL    HW263321   5.831   5.191   1.770
19843SOL     OW63322   6.257   4.188   1.269
19843SOL    HW163323   6.223   4.099   1.239
19843SOL    HW263324   6.283   4.242   1.189
19844SOL     OW63325   6.516   5.402   1.465
19844SOL    HW163326   6.492   5.384   1.370
19844SOL    HW263327   6.546   5.496   1.475
19845SOL     OW63328   6.059   4.224   0.191
19845SOL    HW163329   6.120   4.304   0.195
19845SOL    HW263330   5.964   4.255   0.198
19846SOL     OW63331   5.745   4.861   1.466
19846SOL    HW163332   5.767   4.800   1.542
19846SOL    HW263333   5.755   4.812   1.380
19847SOL     OW63334   6.933   4.783   1.234
19847SOL    HW163335   6.957   4.720   1.160
19847SOL    HW263336   6.843   4.823   1.216
19848SOL     OW63337   6.888   4.579   0.309
19848SOL    HW163338   6.802   4.548   0.351
19848SOL    HW263339   6.884   4.565   0.210
19849SOL     OW63340   7.345   5.471   1.154
19849SOL    HW163341   7.406   5.501   1.081
19849SOL    HW263342   7.307   5.382   1.132
19850SOL     OW63343   6.838   5.455   1.128
19850SOL    HW163344   6.922   5.460   1.074
19850SOL    HW263345   6.815   5.359   1.146
19851SOL     OW63346   5.669   4.982   1.022
19851SOL    HW163347   5.664   4.981   1.122
19851SOL    HW263348   5.586   4.941   0.984
19852SOL     OW63349   6.274   5.386   1.716
19852SOL    HW163350   6.218   5.467   1.725
19852SOL    HW263351   6.326   5.390   1.630
19853SOL     OW63352   6.489   3.810   0.133
19853SOL    HW163353   6.540   3.811   0.047
19853SOL    HW263354   6.545   3.768   0.204
19854SOL     OW63355   7.312   3.859   0.523
19854SOL    HW163356   7.385   3.842   0.456
19854SOL    HW263357   7.281   3.772   0.561
19855SOL     OW63358   6.974   5.297   0.477
19855SOL    HW163359   7.041   5.309   0.403
19855SOL    HW263360   6.934   5.386   0.500
19856SOL     OW63361   5.716   5.518   1.851
19856SOL    HW163362   5.675   5.444   1.904
19856SOL    HW263363   5.780   5.569   1.909
19857SOL     OW63364   6.866   4.651   0.672
19857SOL    HW163365   6.926   4.570   0.674
19857SOL    HW263366   6.906   4.720   0.612
19858SOL     OW63367   6.416   4.997   1.422
19858SOL    HW163368   6.411   5.030   1.517
19858SOL    HW263369   6.330   5.016   1.376
19859SOL     OW63370   6.258   5.340   0.154
19859SOL    HW163371   6.267   5.350   0.055
19859SOL    HW263372   6.218   5.251   0.175
19860SOL     OW63373   7.236   5.444   1.394
19860SOL    HW163374   7.289   5.454   1.310
19860SOL    HW263375   7.209   5.534   1.428
19861SOL     OW63376   7.427   3.899   0.963
19861SOL    HW163377   7.466   3.814   0.927
19861SOL    HW263378   7.329   3.901   0.944
19862SOL     OW63379   5.849   4.050   0.720
19862SOL    HW163380   5.770   4.101   0.686
19862SOL    HW263381   5.840   4.035   0.818
19863SOL     OW63382   6.780   5.336   0.031
19863SOL    HW163383   6.786   5.243   0.068
19863SOL    HW263384   6.721   5.336  -0.049
19864SOL     OW63385   6.408   4.726   1.372
19864SOL    HW163386   6.448   4.725   1.280
19864SOL    HW263387   6.418   4.818   1.412
19865SOL     OW63388   6.502   4.634   0.291
19865SOL    HW163389   6.565   4.672   0.223
19865SOL    HW263390   6.542   4.551   0.330
19866SOL     OW63391   7.090   5.331   0.044
19866SOL    HW163392   6.998   5.368   0.051
19866SOL    HW263393   7.128   5.351  -0.046
19867SOL     OW63394   5.958   5.012   1.490
19867SOL    HW163395   5.945   5.105   1.456
19867SOL    HW263396   5.874   4.960   1.477
19868SOL     OW63397   7.200   5.016   1.289
19868SOL    HW163398   7.260   5.019   1.369
19868SOL    HW263399   7.125   5.080   1.302
19869SOL     OW63400   6.625   4.822   0.696
19869SOL    HW163401   6.555   4.775   0.750
19869SOL    HW263402   6.684   4.754   0.653
19870SOL     OW63403   6.600   3.960   0.971
19870SOL    HW163404   6.592   3.924   0.878
19870SOL    HW263405   6.598   3.884   1.036
19871SOL     OW63406   6.176   5.211   0.491
19871SOL    HW163407   6.218   5.153   0.421
19871SOL    HW263408   6.132   5.290   0.447
19872SOL     OW63409   7.295   4.109   1.381
19872SOL    HW163410   7.368   4.178   1.385
19872SOL    HW263411   7.323   4.034   1.322
19873SOL     OW63412   5.841   5.072   0.290
19873SOL    HW163413   5.745   5.073   0.263
19873SOL    HW263414   5.853   5.125   0.374
19874SOL     OW63415   5.691   4.737   1.726
19874SOL    HW163416   5.614   4.704   1.780
19874SOL    HW263417   5.776   4.707   1.768
19875SOL     OW63418   6.258   3.927   1.489
19875SOL    HW163419   6.348   3.911   1.449
19875SOL    HW263420   6.266   3.932   1.588
19876SOL     OW63421   5.661   4.069   0.033
19876SOL    HW163422   5.569   4.041   0.004
19876SOL    HW263423   5.692   4.146  -0.023
19877SOL     OW63424   7.026   4.580   1.398
19877SOL    HW163425   6.969   4.632   1.335
19877SOL    HW263426   7.122   4.592   1.374
19878SOL     OW63427   5.658   3.890   0.318
19878SOL    HW163428   5.641   3.973   0.264
19878SOL    HW263429   5.748   3.853   0.296
19879SOL     OW63430   6.769   5.059   0.119
19879SOL    HW163431   6.670   5.048   0.121
19879SOL    HW263432   6.803   5.074   0.212
19880SOL     OW63433   6.199   4.566   1.431
19880SOL    HW163434   6.255   4.647   1.414
19880SOL    HW263435   6.258   4.486   1.434
19881SOL     OW63436   7.079   5.491   0.959
19881SOL    HW163437   7.112   5.555   0.890
19881SOL    HW263438   7.145   5.485   1.034
19882SOL     OW63439   6.302   4.289   1.708
19882SOL    HW163440   6.321   4.354   1.782
19882SOL    HW263441   6.362   4.209   1.717
19883SOL     OW63442   7.036   4.944   1.633
19883SOL    HW163443   7.027   4.934   1.732
19883SOL    HW263444   7.132   4.937   1.607
19884SOL     OW63445   5.976   5.465   1.560
19884SOL    HW163446   5.885   5.506   1.558
19884SOL    HW263447   5.969   5.371   1.592
19885SOL     OW63448   7.260   4.607   1.254
19885SOL    HW163449   7.233   4.518   1.217
19885SOL    HW263450   7.261   4.675   1.181
19886SOL     OW63451   6.811   4.049   0.449
19886SOL    HW163452   6.876   3.975   0.438
19886SOL    HW263453   6.831   4.099   0.533
19887SOL     OW63454   6.180   4.469   0.652
19887SOL    HW163455   6.230   4.554   0.633
19887SOL    HW263456   6.092   4.471   0.604
19888SOL     OW63457   7.363   4.066   1.642
19888SOL    HW163458   7.346   4.097   1.548
19888SOL    HW263459   7.279   4.029   1.680
19889SOL     OW63460   7.316   4.658   1.517
19889SOL    HW163461   7.354   4.749   1.532
19889SOL    HW263462   7.308   4.641   1.418
19890SOL     OW63463   6.445   5.098   0.016
19890SOL    HW163464   6.399   5.113   0.104
19890SOL    HW263465   6.489   5.183  -0.014
19891SOL     OW63466   6.445   4.680   0.861
19891SOL    HW163467   6.499   4.611   0.909
19891SOL    HW263468   6.413   4.749   0.927
19892SOL     OW63469   6.669   4.708   0.087
19892SOL    HW163470   6.646   4.761   0.005
19892SOL    HW263471   6.750   4.652   0.068
19893SOL     OW63472   7.447   5.293   0.851
19893SOL    HW163473   7.376   5.281   0.781
19893SOL    HW263474   7.448   5.214   0.911
19894SOL     OW63475   5.807   5.038   1.844
19894SOL    HW163476   5.742   4.965   1.823
19894SOL    HW263477   5.811   5.052   1.942
19895SOL     OW63478   5.665   4.964   0.653
19895SOL    HW163479   5.664   4.917   0.741
19895SOL    HW263480   5.747   4.936   0.602
19896SOL     OW63481   6.258   5.115   1.624
19896SOL    HW163482   6.180   5.065   1.662
19896SOL    HW263483   6.255   5.210   1.655
19897SOL     OW63484   7.410   3.916   1.227
19897SOL    HW163485   7.406   3.826   1.271
19897SOL    HW263486   7.413   3.905   1.128
19898SOL     OW63487   6.014   4.148   0.520
19898SOL    HW163488   6.044   4.076   0.458
19898SOL    HW263489   5.975   4.108   0.603
19899SOL     OW63490   7.291   5.211   1.104
19899SOL    HW163491   7.198   5.186   1.077
19899SOL    HW263492   7.317   5.161   1.186
19900SOL     OW63493   5.903   4.271   1.280
19900SOL    HW163494   5.941   4.212   1.352
19900SOL    HW263495   5.943   4.245   1.192
19901SOL     OW63496   7.010   3.938   1.112
19901SOL    HW163497   7.062   3.873   1.167
19901SOL    HW263498   6.961   4.001   1.173
19902SOL     OW63499   6.587   3.758   1.154
19902SOL    HW163500   6.524   3.686   1.123
19902SOL    HW263501   6.680   3.722   1.154
19903SOL     OW63502   6.204   5.291   1.284
19903SOL    HW163503   6.199   5.373   1.341
19903SOL    HW263504   6.293   5.288   1.239
19904SOL     OW63505   6.938   3.776   0.168
19904SOL    HW163506   6.973   3.735   0.084
19904SOL    HW263507   6.848   3.738   0.188
19905SOL     OW63508   6.886   4.177   0.691
19905SOL    HW163509   6.827   4.257   0.695
19905SOL    HW263510   6.901   4.142   0.784
19906SOL     OW63511   7.179   3.945   0.882
19906SOL    HW163512   7.095   3.944   0.936
19906SOL    HW263513   7.181   4.028   0.826
19907SOL     OW63514   5.625   4.801   0.300
19907SOL    HW163515   5.724   4.790   0.291
19907SOL    HW263516   5.585   4.715   0.332
19908SOL     OW63517   5.816   4.352   1.975
19908SOL    HW163518   5.723   4.350   2.012
19908SOL    HW263519   5.817   4.313   1.883
19909SOL     OW63520   5.811   3.999   2.858
19909SOL    HW163521   5.846   3.982   2.950
19909SOL    HW263522   5.723   3.954   2.846
19910SOL     OW63523   5.605   4.092   2.509
19910SOL    HW163524   5.523   4.135   2.548
19910SOL    HW263525   5.577   4.019   2.446
19911SOL     OW63526   6.155   4.999   3.027
19911SOL    HW163527   6.062   4.992   2.990
19911SOL    HW263528   6.166   5.088   3.071
19912SOL     OW63529   7.141   5.235   2.565
19912SOL    HW163530   7.084   5.219   2.646
19912SOL    HW263531   7.082   5.245   2.485
19913SOL     OW63532   6.721   4.427   2.579
19913SOL    HW163533   6.778   4.505   2.554
19913SOL    HW263534   6.661   4.453   2.655
19914SOL     OW63535   7.341   4.331   2.093
19914SOL    HW163536   7.329   4.318   1.994
19914SOL    HW263537   7.311   4.250   2.142
19915SOL     OW63538   6.354   4.868   2.885
19915SOL    HW163539   6.276   4.885   2.945
19915SOL    HW263540   6.388   4.955   2.849
19916SOL     OW63541   6.436   4.522   3.685
19916SOL    HW163542   6.432   4.598   3.750
19916SOL    HW263543   6.458   4.558   3.594
19917SOL     OW63544   6.271   4.736   2.527
19917SOL    HW163545   6.340   4.720   2.597
19917SOL    HW263546   6.198   4.793   2.565
19918SOL     OW63547   6.272   4.885   3.665
19918SOL    HW163548   6.332   4.964   3.679
19918SOL    HW263549   6.186   4.916   3.624
19919SOL     OW63550   5.921   5.159   2.923
19919SOL    HW163551   5.843   5.128   2.870
19919SOL    HW263552   5.979   5.217   2.866
19920SOL     OW63553   7.046   5.229   3.201
19920SOL    HW163554   7.070   5.323   3.227
19920SOL    HW263555   7.030   5.175   3.283
19921SOL     OW63556   6.024   4.116   3.361
19921SOL    HW163557   6.106   4.060   3.370
19921SOL    HW263558   5.943   4.058   3.365
19922SOL     OW63559   7.189   4.171   2.599
19922SOL    HW163560   7.115   4.217   2.549
19922SOL    HW263561   7.240   4.239   2.652
19923SOL     OW63562   5.817   5.437   2.345
19923SOL    HW163563   5.851   5.514   2.399
19923SOL    HW263564   5.861   5.437   2.255
19924SOL     OW63565   6.713   5.065   3.552
19924SOL    HW163566   6.760   5.065   3.640
19924SOL    HW263567   6.665   4.978   3.541
19925SOL     OW63568   5.816   5.158   2.400
19925SOL    HW163569   5.790   5.254   2.400
19925SOL    HW263570   5.745   5.104   2.445
19926SOL     OW63571   5.826   4.815   2.748
19926SOL    HW163572   5.840   4.731   2.800
19926SOL    HW263573   5.771   4.879   2.803
19927SOL     OW63574   6.206   5.510   3.301
19927SOL    HW163575   6.114   5.493   3.336
19927SOL    HW263576   6.234   5.602   3.327
19928SOL     OW63577   6.192   4.688   1.985
19928SOL    HW163578   6.199   4.772   1.931
19928SOL    HW263579   6.238   4.701   2.073
19929SOL     OW63580   7.180   3.838   3.342
19929SOL    HW163581   7.162   3.905   3.270
19929SOL    HW263582   7.177   3.884   3.431
19930SOL     OW63583   5.708   4.367   2.425
19930SOL    HW163584   5.663   4.279   2.442
19930SOL    HW263585   5.707   4.421   2.509
19931SOL     OW63586   7.428   5.491   2.221
19931SOL    HW163587   7.482   5.462   2.301
19931SOL    HW263588   7.458   5.581   2.192
19932SOL     OW63589   5.613   5.320   1.979
19932SOL    HW163590   5.594   5.224   2.000
19932SOL    HW263591   5.580   5.378   2.054
19933SOL     OW63592   7.275   4.646   2.474
19933SOL    HW163593   7.370   4.617   2.482
19933SOL    HW263594   7.267   4.711   2.399
19934SOL     OW63595   7.227   4.832   2.294
19934SOL    HW163596   7.313   4.834   2.242
19934SOL    HW263597   7.241   4.879   2.382
19935SOL     OW63598   5.699   4.461   3.459
19935SOL    HW163599   5.787   4.448   3.504
19935SOL    HW263600   5.686   4.558   3.437
19936SOL     OW63601   6.199   5.089   2.588
19936SOL    HW163602   6.150   5.002   2.597
19936SOL    HW263603   6.176   5.132   2.501
19937SOL     OW63604   6.879   4.952   3.285
19937SOL    HW163605   6.916   4.879   3.227
19937SOL    HW263606   6.931   4.957   3.370
19938SOL     OW63607   6.395   3.728   2.364
19938SOL    HW163608   6.435   3.819   2.355
19938SOL    HW263609   6.295   3.736   2.370
19939SOL     OW63610   5.783   4.700   3.126
19939SOL    HW163611   5.872   4.655   3.112
19939SOL    HW263612   5.710   4.635   3.107
19940SOL     OW63613   7.111   4.723   2.052
19940SOL    HW163614   7.048   4.647   2.065
19940SOL    HW263615   7.159   4.741   2.138
19941SOL     OW63616   6.773   5.516   3.478
19941SOL    HW163617   6.797   5.576   3.402
19941SOL    HW263618   6.780   5.421   3.448
19942SOL     OW63619   5.903   3.975   3.663
19942SOL    HW163620   5.974   4.046   3.669
19942SOL    HW263621   5.815   4.014   3.691
19943SOL     OW63622   7.052   5.141   2.815
19943SOL    HW163623   6.993   5.147   2.895
19943SOL    HW263624   7.037   5.053   2.769
19944SOL     OW63625   7.253   5.438   2.434
19944SOL    HW163626   7.212   5.415   2.346
19944SOL    HW263627   7.235   5.364   2.499
19945SOL     OW63628   6.184   4.453   2.132
19945SOL    HW163629   6.208   4.522   2.064
19945SOL    HW263630   6.106   4.486   2.186
19946SOL     OW63631   6.867   4.069   2.806
19946SOL    HW163632   6.781   4.019   2.793
19946SOL    HW263633   6.929   4.015   2.862
19947SOL     OW63634   7.162   5.386   2.169
19947SOL    HW163635   7.251   5.432   2.172
19947SOL    HW263636   7.141   5.362   2.074
19948SOL     OW63637   6.393   4.329   3.327
19948SOL    HW163638   6.346   4.326   3.416
19948SOL    HW263639   6.342   4.274   3.261
19949SOL     OW63640   6.980   4.193   3.536
19949SOL    HW163641   6.960   4.236   3.624
19949SOL    HW263642   7.058   4.131   3.545
19950SOL     OW63643   6.559   4.614   3.434
19950SOL    HW163644   6.605   4.530   3.405
19950SOL    HW263645   6.503   4.648   3.359
19951SOL     OW63646   6.577   4.134   3.104
19951SOL    HW163647   6.500   4.168   3.158
19951SOL    HW263648   6.543   4.083   3.025
19952SOL     OW63649   6.627   4.425   2.291
19952SOL    HW163650   6.653   4.421   2.387
19952SOL    HW263651   6.542   4.374   2.277
19953SOL     OW63652   5.662   4.535   2.651
19953SOL    HW163653   5.761   4.523   2.660
19953SOL    HW263654   5.638   4.630   2.672
19954SOL     OW63655   5.716   5.545   3.433
19954SOL    HW163656   5.706   5.530   3.532
19954SOL    HW263657   5.630   5.581   3.397
19955SOL     OW63658   6.451   4.072   2.057
19955SOL    HW163659   6.510   4.135   2.008
19955SOL    HW263660   6.470   3.978   2.028
19956SOL     OW63661   7.305   4.309   3.693
19956SOL    HW163662   7.279   4.398   3.657
19956SOL    HW263663   7.303   4.241   3.620
19957SOL     OW63664   6.948   4.868   2.407
19957SOL    HW163665   7.031   4.839   2.359
19957SOL    HW263666   6.899   4.935   2.351
19958SOL     OW63667   6.136   3.920   2.747
19958SOL    HW163668   6.131   3.915   2.847
19958SOL    HW263669   6.138   4.016   2.718
19959SOL     OW63670   6.594   5.180   2.339
19959SOL    HW163671   6.548   5.252   2.287
19959SOL    HW263672   6.590   5.200   2.437
19960SOL     OW63673   5.937   5.525   2.715
19960SOL    HW163674   5.987   5.439   2.721
19960SOL    HW263675   6.002   5.602   2.712
19961SOL     OW63676   7.381   4.790   2.735
19961SOL    HW163677   7.319   4.775   2.659
19961SOL    HW263678   7.329   4.801   2.820
19962SOL     OW63679   6.813   5.274   3.368
19962SOL    HW163680   6.819   5.197   3.432
19962SOL    HW263681   6.761   5.248   3.288
19963SOL     OW63682   5.907   4.667   2.104
19963SOL    HW163683   5.989   4.706   2.062
19963SOL    HW263684   5.880   4.585   2.055
19964SOL     OW63685   7.044   4.459   2.590
19964SOL    HW163686   7.039   4.394   2.665
19964SOL    HW263687   7.124   4.518   2.603
19965SOL     OW63688   6.047   4.990   3.589
19965SOL    HW163689   5.997   4.991   3.503
19965SOL    HW263690   5.984   4.972   3.665
19966SOL     OW63691   6.697   5.500   2.099
19966SOL    HW163692   6.637   5.438   2.149
19966SOL    HW263693   6.728   5.456   2.014
19967SOL     OW63694   5.788   4.009   3.360
19967SOL    HW163695   5.708   4.069   3.347
19967SOL    HW263696   5.778   3.960   3.446
19968SOL     OW63697   7.218   5.101   1.943
19968SOL    HW163698   7.186   5.195   1.933
19968SOL    HW263699   7.142   5.038   1.931
19969SOL     OW63700   6.050   5.467   2.185
19969SOL    HW163701   6.083   5.506   2.271
19969SOL    HW263702   6.126   5.460   2.120
19970SOL     OW63703   6.986   3.831   2.288
19970SOL    HW163704   6.962   3.794   2.198
19970SOL    HW263705   7.085   3.847   2.292
19971SOL     OW63706   5.835   5.509   3.103
19971SOL    HW163707   5.892   5.444   3.153
19971SOL    HW263708   5.819   5.476   3.010
19972SOL     OW63709   6.526   5.422   2.766
19972SOL    HW163710   6.606   5.365   2.787
19972SOL    HW263711   6.477   5.382   2.689
19973SOL     OW63712   5.968   4.424   2.342
19973SOL    HW163713   6.013   4.334   2.339
19973SOL    HW263714   5.874   4.413   2.375
19974SOL     OW63715   7.133   3.946   3.591
19974SOL    HW163716   7.128   3.983   3.683
19974SOL    HW263717   7.061   3.877   3.579
19975SOL     OW63718   6.200   3.846   1.979
19975SOL    HW163719   6.298   3.824   1.986
19975SOL    HW263720   6.169   3.829   1.886
19976SOL     OW63721   6.367   3.988   3.611
19976SOL    HW163722   6.434   3.927   3.654
19976SOL    HW263723   6.294   4.007   3.676
19977SOL     OW63724   6.474   5.238   3.057
19977SOL    HW163725   6.451   5.213   2.963
19977SOL    HW263726   6.535   5.169   3.096
19978SOL     OW63727   6.937   4.314   3.295
19978SOL    HW163728   6.965   4.271   3.380
19978SOL    HW263729   6.962   4.410   3.296
19979SOL     OW63730   6.389   5.126   2.786
19979SOL    HW163731   6.479   5.140   2.744
19979SOL    HW263732   6.318   5.128   2.715
19980SOL     OW63733   6.508   4.227   2.761
19980SOL    HW163734   6.483   4.218   2.665
19980SOL    HW263735   6.556   4.145   2.792
19981SOL     OW63736   6.125   3.788   2.374
19981SOL    HW163737   6.044   3.789   2.432
19981SOL    HW263738   6.128   3.871   2.319
19982SOL     OW63739   7.020   4.912   1.903
19982SOL    HW163740   7.052   4.836   1.960
19982SOL    HW263741   6.928   4.939   1.933
19983SOL     OW63742   5.883   3.759   2.033
19983SOL    HW163743   5.932   3.843   2.012
19983SOL    HW263744   5.945   3.694   2.078
19984SOL     OW63745   6.521   3.960   2.342
19984SOL    HW163746   6.473   4.001   2.264
19984SOL    HW263747   6.620   3.958   2.323
19985SOL     OW63748   6.662   4.407   3.326
19985SOL    HW163749   6.582   4.346   3.329
19985SOL    HW263750   6.743   4.354   3.302
19986SOL     OW63751   6.813   5.294   2.655
19986SOL    HW163752   6.834   5.368   2.590
19986SOL    HW263753   6.881   5.294   2.728
19987SOL     OW63754   6.045   4.876   2.603
19987SOL    HW163755   5.974   4.849   2.668
19987SOL    HW263756   6.019   4.848   2.510
19988SOL     OW63757   6.857   5.521   2.453
19988SOL    HW163758   6.901   5.585   2.389
19988SOL    HW263759   6.807   5.573   2.523
19989SOL     OW63760   6.618   4.273   1.878
19989SOL    HW163761   6.577   4.355   1.839
19989SOL    HW263762   6.682   4.299   1.951
19990SOL     OW63763   5.664   4.280   3.248
19990SOL    HW163764   5.756   4.279   3.207
19990SOL    HW263765   5.658   4.354   3.315
19991SOL     OW63766   6.147   3.946   3.009
19991SOL    HW163767   6.185   3.862   3.046
19991SOL    HW263768   6.059   3.965   3.053
19992SOL     OW63769   6.452   4.178   2.504
19992SOL    HW163770   6.420   4.250   2.442
19992SOL    HW263771   6.476   4.097   2.451
19993SOL     OW63772   6.603   3.763   2.615
19993SOL    HW163773   6.531   3.768   2.546
19993SOL    HW263774   6.579   3.694   2.684
19994SOL     OW63775   7.015   4.897   2.729
19994SOL    HW163776   6.960   4.813   2.722
19994SOL    HW263777   7.041   4.926   2.637
19995SOL     OW63778   7.052   4.314   2.854
19995SOL    HW163779   7.022   4.219   2.861
19995SOL    HW263780   7.125   4.330   2.920
19996SOL     OW63781   7.443   4.557   2.239
19996SOL    HW163782   7.485   4.493   2.303
19996SOL    HW263783   7.405   4.506   2.161
19997SOL     OW63784   6.074   5.109   2.036
19997SOL    HW163785   5.987   5.094   2.083
19997SOL    HW263786   6.057   5.135   1.941
19998SOL     OW63787   7.250   5.004   2.519
19998SOL    HW163788   7.349   5.012   2.533
19998SOL    HW263789   7.205   5.088   2.550
19999SOL     OW63790   6.976   4.299   1.940
19999SOL    HW163791   6.922   4.278   2.021
19999SOL    HW263792   7.067   4.258   1.949
20000SOL     OW63793   6.113   3.980   2.190
20000SOL    HW163794   6.140   3.921   2.115
20000SOL    HW263795   6.113   4.075   2.159
20001SOL     OW63796   7.340   4.947   3.450
20001SOL    HW163797   7.431   4.908   3.437
20001SOL    HW263798   7.348   5.043   3.474
20002SOL     OW63799   6.650   5.071   3.202
20002SOL    HW163800   6.570   5.048   3.257
20002SOL    HW263801   6.733   5.045   3.251
20003SOL     OW63802   7.178   5.353   3.487
20003SOL    HW163803   7.205   5.387   3.397
20003SOL    HW263804   7.257   5.315   3.533
20004SOL     OW63805   6.697   4.919   2.962
20004SOL    HW163806   6.657   4.963   3.043
20004SOL    HW263807   6.656   4.956   2.879
20005SOL     OW63808   7.224   4.823   2.941
20005SOL    HW163809   7.229   4.904   3.000
20005SOL    HW263810   7.138   4.825   2.890
20006SOL     OW63811   6.501   3.813   3.264
20006SOL    HW163812   6.526   3.793   3.169
20006SOL    HW263813   6.573   3.869   3.306
20007SOL     OW63814   6.566   4.840   3.581
20007SOL    HW163815   6.467   4.846   3.591
20007SOL    HW263816   6.589   4.760   3.525
20008SOL     OW63817   6.291   4.774   2.230
20008SOL    HW163818   6.277   4.781   2.329
20008SOL    HW263819   6.375   4.723   2.212
20009SOL     OW63820   5.996   4.537   3.113
20009SOL    HW163821   6.082   4.549   3.163
20009SOL    HW263822   5.954   4.450   3.140
20010SOL     OW63823   6.860   4.110   3.124
20010SOL    HW163824   6.881   4.184   3.188
20010SOL    HW263825   6.771   4.127   3.081
20011SOL     OW63826   5.650   5.288   3.193
20011SOL    HW163827   5.604   5.370   3.159
20011SOL    HW263828   5.748   5.307   3.202
20012SOL     OW63829   5.953   4.824   2.363
20012SOL    HW163830   5.946   4.907   2.307
20012SOL    HW263831   5.957   4.744   2.303
20013SOL     OW63832   6.152   4.261   2.727
20013SOL    HW163833   6.164   4.327   2.653
20013SOL    HW263834   6.198   4.295   2.810
20014SOL     OW63835   6.838   5.072   2.250
20014SOL    HW163836   6.888   5.149   2.290
20014SOL    HW263837   6.743   5.074   2.282
20015SOL     OW63838   6.858   5.169   3.004
20015SOL    HW163839   6.905   5.182   3.091
20015SOL    HW263840   6.792   5.095   3.013
20016SOL     OW63841   7.168   4.363   2.334
20016SOL    HW163842   7.137   4.424   2.407
20016SOL    HW263843   7.218   4.415   2.265
20017SOL     OW63844   5.940   5.234   3.191
20017SOL    HW163845   5.919   5.190   3.104
20017SOL    HW263846   6.037   5.260   3.194
20018SOL     OW63847   5.988   4.475   3.460
20018SOL    HW163848   6.056   4.530   3.413
20018SOL    HW263849   6.028   4.387   3.487
20019SOL     OW63850   7.173   4.503   3.532
20019SOL    HW163851   7.081   4.541   3.527
20019SOL    HW263852   7.233   4.550   3.467
20020SOL     OW63853   6.599   3.829   3.632
20020SOL    HW163854   6.605   3.914   3.580
20020SOL    HW263855   6.631   3.753   3.575
20021SOL     OW63856   6.090   3.774   3.602
20021SOL    HW163857   6.048   3.717   3.532
20021SOL    HW263858   6.024   3.843   3.634
20022SOL     OW63859   6.159   4.594   2.891
20022SOL    HW163860   6.203   4.683   2.882
20022SOL    HW263861   6.096   4.594   2.968
20023SOL     OW63862   6.946   4.586   2.907
20023SOL    HW163863   6.871   4.586   2.841
20023SOL    HW263864   6.983   4.494   2.916
20024SOL     OW63865   6.795   4.249   2.137
20024SOL    HW163866   6.808   4.165   2.191
20024SOL    HW263867   6.766   4.323   2.197
20025SOL     OW63868   5.893   3.937   3.093
20025SOL    HW163869   5.870   3.974   3.183
20025SOL    HW263870   5.863   3.842   3.087
20026SOL     OW63871   5.623   5.034   3.144
20026SOL    HW163872   5.676   4.985   3.212
20026SOL    HW263873   5.645   5.132   3.149
20027SOL     OW63874   6.318   4.358   2.926
20027SOL    HW163875   6.377   4.332   2.850
20027SOL    HW263876   6.290   4.454   2.915
20028SOL     OW63877   7.314   4.659   3.716
20028SOL    HW163878   7.268   4.652   3.627
20028SOL    HW263879   7.252   4.703   3.782
20029SOL     OW63880   5.893   3.787   2.480
20029SOL    HW163881   5.882   3.881   2.513
20029SOL    HW263882   5.888   3.724   2.557
20030SOL     OW63883   7.208   4.091   2.236
20030SOL    HW163884   7.210   4.015   2.300
20030SOL    HW263885   7.160   4.168   2.276
20031SOL     OW63886   6.609   4.490   2.828
20031SOL    HW163887   6.624   4.511   2.924
20031SOL    HW263888   6.579   4.395   2.819
20032SOL     OW63889   6.566   5.297   3.562
20032SOL    HW163890   6.546   5.341   3.474
20032SOL    HW263891   6.605   5.206   3.546
20033SOL     OW63892   7.445   5.242   3.467
20033SOL    HW163893   7.459   5.269   3.372
20033SOL    HW263894   7.528   5.264   3.520
20034SOL     OW63895   5.936   4.622   3.666
20034SOL    HW163896   6.012   4.666   3.714
20034SOL    HW263897   5.971   4.575   3.584
20035SOL     OW63898   7.126   3.998   1.987
20035SOL    HW163899   7.065   3.923   2.010
20035SOL    HW263900   7.148   4.050   2.070
20036SOL     OW63901   6.889   4.562   1.904
20036SOL    HW163902   6.923   4.469   1.919
20036SOL    HW263903   6.907   4.589   1.809
20037SOL     OW63904   6.654   5.057   2.711
20037SOL    HW163905   6.661   4.973   2.656
20037SOL    HW263906   6.716   5.126   2.675
20038SOL     OW63907   5.905   4.534   2.811
20038SOL    HW163908   5.998   4.570   2.816
20038SOL    HW263909   5.899   4.449   2.863
20039SOL     OW63910   5.925   4.233   2.868
20039SOL    HW163911   5.873   4.150   2.851
20039SOL    HW263912   6.002   4.238   2.804
20040SOL     OW63913   6.724   4.104   3.540
20040SOL    HW163914   6.679   4.167   3.604
20040SOL    HW263915   6.817   4.135   3.523
20041SOL     OW63916   6.746   3.931   3.339
20041SOL    HW163917   6.746   3.995   3.416
20041SOL    HW263918   6.774   3.979   3.256
20042SOL     OW63919   5.594   5.050   2.062
20042SOL    HW163920   5.501   5.071   2.031
20042SOL    HW263921   5.604   4.951   2.075
20043SOL     OW63922   5.674   5.525   2.789
20043SOL    HW163923   5.632   5.439   2.762
20043SOL    HW263924   5.768   5.528   2.755
20044SOL     OW63925   6.090   5.292   2.772
20044SOL    HW163926   6.156   5.366   2.781
20044SOL    HW263927   6.134   5.213   2.730
20045SOL     OW63928   6.588   4.520   3.100
20045SOL    HW163929   6.629   4.488   3.186
20045SOL    HW263930   6.492   4.493   3.097
20046SOL     OW63931   5.626   4.268   2.976
20046SOL    HW163932   5.711   4.235   2.935
20046SOL    HW263933   5.639   4.283   3.074
20047SOL     OW63934   5.775   4.244   3.584
20047SOL    HW163935   5.834   4.204   3.514
20047SOL    HW263936   5.717   4.315   3.543
20048SOL     OW63937   6.955   4.674   3.522
20048SOL    HW163938   6.994   4.763   3.542
20048SOL    HW263939   6.965   4.654   3.425
20049SOL     OW63940   6.401   4.296   2.187
20049SOL    HW163941   6.408   4.207   2.141
20049SOL    HW263942   6.307   4.330   2.179
20050SOL     OW63943   7.243   4.328   3.068
20050SOL    HW163944   7.205   4.259   3.130
20050SOL    HW263945   7.325   4.292   3.024
20051SOL     OW63946   5.838   5.288   3.606
20051SOL    HW163947   5.808   5.345   3.682
20051SOL    HW263948   5.831   5.191   3.632
20052SOL     OW63949   6.257   4.188   3.131
20052SOL    HW163950   6.223   4.099   3.101
20052SOL    HW263951   6.283   4.242   3.051
20053SOL     OW63952   6.516   5.402   3.327
20053SOL    HW163953   6.492   5.384   3.232
20053SOL    HW263954   6.546   5.496   3.337
20054SOL     OW63955   6.059   4.224   2.053
20054SOL    HW163956   6.120   4.304   2.057
20054SOL    HW263957   5.964   4.255   2.060
20055SOL     OW63958   5.745   4.861   3.328
20055SOL    HW163959   5.767   4.800   3.404
20055SOL    HW263960   5.755   4.812   3.242
20056SOL     OW63961   6.933   4.783   3.096
20056SOL    HW163962   6.957   4.720   3.022
20056SOL    HW263963   6.843   4.823   3.078
20057SOL     OW63964   6.888   4.579   2.171
20057SOL    HW163965   6.802   4.548   2.213
20057SOL    HW263966   6.884   4.565   2.072
20058SOL     OW63967   7.345   5.471   3.016
20058SOL    HW163968   7.406   5.501   2.943
20058SOL    HW263969   7.307   5.382   2.994
20059SOL     OW63970   6.838   5.455   2.990
20059SOL    HW163971   6.922   5.460   2.936
20059SOL    HW263972   6.815   5.359   3.008
20060SOL     OW63973   5.669   4.982   2.884
20060SOL    HW163974   5.664   4.981   2.984
20060SOL    HW263975   5.586   4.941   2.846
20061SOL     OW63976   6.274   5.386   3.578
20061SOL    HW163977   6.218   5.467   3.587
20061SOL    HW263978   6.326   5.390   3.492
20062SOL     OW63979   7.312   3.859   2.385
20062SOL    HW163980   7.385   3.842   2.318
20062SOL    HW263981   7.281   3.772   2.423
20063SOL     OW63982   6.974   5.297   2.339
20063SOL    HW163983   7.041   5.309   2.265
20063SOL    HW263984   6.934   5.386   2.362
20064SOL     OW63985   5.716   5.518   3.713
20064SOL    HW163986   5.675   5.444   3.766
20064SOL    HW263987   5.780   5.569   3.771
20065SOL     OW63988   6.866   4.651   2.534
20065SOL    HW163989   6.926   4.570   2.536
20065SOL    HW263990   6.906   4.720   2.474
20066SOL     OW63991   6.416   4.997   3.284
20066SOL    HW163992   6.411   5.030   3.379
20066SOL    HW263993   6.330   5.016   3.238
20067SOL     OW63994   6.258   5.340   2.016
20067SOL    HW163995   6.267   5.350   1.917
20067SOL    HW263996   6.218   5.251   2.037
20068SOL     OW63997   7.236   5.444   3.256
20068SOL    HW163998   7.289   5.454   3.172
20068SOL    HW263999   7.209   5.534   3.290
20069SOL     OW64000   7.427   3.899   2.825
20069SOL    HW164001   7.466   3.814   2.789
20069SOL    HW264002   7.329   3.901   2.806
20070SOL     OW64003   5.849   4.050   2.582
20070SOL    HW164004   5.770   4.101   2.548
20070SOL    HW264005   5.840   4.035   2.680
20071SOL     OW64006   6.780   5.336   1.893
20071SOL    HW164007   6.786   5.243   1.930
20071SOL    HW264008   6.721   5.336   1.813
20072SOL     OW64009   6.408   4.726   3.234
20072SOL    HW164010   6.448   4.725   3.142
20072SOL    HW264011   6.418   4.818   3.274
20073SOL     OW64012   6.502   4.634   2.153
20073SOL    HW164013   6.565   4.672   2.085
20073SOL    HW264014   6.542   4.551   2.192
20074SOL     OW64015   7.090   5.331   1.906
20074SOL    HW164016   6.998   5.368   1.913
20074SOL    HW264017   7.128   5.351   1.816
20075SOL     OW64018   5.958   5.012   3.352
20075SOL    HW164019   5.945   5.105   3.318
20075SOL    HW264020   5.874   4.960   3.339
20076SOL     OW64021   7.200   5.016   3.151
20076SOL    HW164022   7.260   5.019   3.231
20076SOL    HW264023   7.125   5.080   3.164
20077SOL     OW64024   6.625   4.822   2.558
20077SOL    HW164025   6.555   4.775   2.612
20077SOL    HW264026   6.684   4.754   2.515
20078SOL     OW64027   6.600   3.960   2.833
20078SOL    HW164028   6.592   3.924   2.740
20078SOL    HW264029   6.598   3.884   2.898
20079SOL     OW64030   6.176   5.211   2.353
20079SOL    HW164031   6.218   5.153   2.283
20079SOL    HW264032   6.132   5.290   2.309
20080SOL     OW64033   7.295   4.109   3.243
20080SOL    HW164034   7.368   4.178   3.247
20080SOL    HW264035   7.323   4.034   3.184
20081SOL     OW64036   5.841   5.072   2.152
20081SOL    HW164037   5.745   5.073   2.125
20081SOL    HW264038   5.853   5.125   2.236
20082SOL     OW64039   5.691   4.737   3.588
20082SOL    HW164040   5.614   4.704   3.642
20082SOL    HW264041   5.776   4.707   3.630
20083SOL     OW64042   6.258   3.927   3.351
20083SOL    HW164043   6.348   3.911   3.311
20083SOL    HW264044   6.266   3.932   3.450
20084SOL     OW64045   5.661   4.069   1.895
20084SOL    HW164046   5.569   4.041   1.866
20084SOL    HW264047   5.692   4.146   1.839
20085SOL     OW64048   7.026   4.580   3.260
20085SOL    HW164049   6.969   4.632   3.197
20085SOL    HW264050   7.122   4.592   3.236
20086SOL     OW64051   5.658   3.890   2.180
20086SOL    HW164052   5.641   3.973   2.126
20086SOL    HW264053   5.748   3.853   2.158
20087SOL     OW64054   6.769   5.059   1.981
20087SOL    HW164055   6.670   5.048   1.983
20087SOL    HW264056   6.803   5.074   2.074
20088SOL     OW64057   6.199   4.566   3.293
20088SOL    HW164058   6.255   4.647   3.276
20088SOL    HW264059   6.258   4.486   3.296
20089SOL     OW64060   7.079   5.491   2.821
20089SOL    HW164061   7.112   5.555   2.752
20089SOL    HW264062   7.145   5.485   2.896
20090SOL     OW64063   6.302   4.289   3.570
20090SOL    HW164064   6.321   4.354   3.644
20090SOL    HW264065   6.362   4.209   3.579
20091SOL     OW64066   7.036   4.944   3.495
20091SOL    HW164067   7.027   4.934   3.594
20091SOL    HW264068   7.132   4.937   3.469
20092SOL     OW64069   5.976   5.465   3.422
20092SOL    HW164070   5.885   5.506   3.420
20092SOL    HW264071   5.969   5.371   3.454
20093SOL     OW64072   7.260   4.607   3.116
20093SOL    HW164073   7.233   4.518   3.079
20093SOL    HW264074   7.261   4.675   3.043
20094SOL     OW64075   6.811   4.049   2.311
20094SOL    HW164076   6.876   3.975   2.300
20094SOL    HW264077   6.831   4.099   2.395
20095SOL     OW64078   6.180   4.469   2.514
20095SOL    HW164079   6.230   4.554   2.495
20095SOL    HW264080   6.092   4.471   2.466
20096SOL     OW64081   7.363   4.066   3.504
20096SOL    HW164082   7.346   4.097   3.410
20096SOL    HW264083   7.279   4.029   3.542
20097SOL     OW64084   7.316   4.658   3.379
20097SOL    HW164085   7.354   4.749   3.394
20097SOL    HW264086   7.308   4.641   3.280
20098SOL     OW64087   6.445   5.098   1.878
20098SOL    HW164088   6.399   5.113   1.966
20098SOL    HW264089   6.489   5.183   1.848
20099SOL     OW64090   6.247   5.514   2.815
20099SOL    HW164091   6.201   5.602   2.802
20099SOL    HW264092   6.346   5.526   2.808
20100SOL     OW64093   6.445   4.680   2.723
20100SOL    HW164094   6.499   4.611   2.771
20100SOL    HW264095   6.413   4.749   2.789
20101SOL     OW64096   6.669   4.708   1.949
20101SOL    HW164097   6.646   4.761   1.867
20101SOL    HW264098   6.750   4.652   1.930
20102SOL     OW64099   7.447   5.293   2.713
20102SOL    HW164100   7.376   5.281   2.643
20102SOL    HW264101   7.448   5.214   2.773
20103SOL     OW64102   5.807   5.038   3.706
20103SOL    HW164103   5.742   4.965   3.685
20103SOL    HW264104   5.811   5.052   3.804
20104SOL     OW64105   5.665   4.964   2.515
20104SOL    HW164106   5.664   4.917   2.603
20104SOL    HW264107   5.747   4.936   2.464
20105SOL     OW64108   6.258   5.115   3.486
20105SOL    HW164109   6.180   5.065   3.524
20105SOL    HW264110   6.255   5.210   3.517
20106SOL     OW64111   7.410   3.916   3.089
20106SOL    HW164112   7.406   3.826   3.133
20106SOL    HW264113   7.413   3.905   2.990
20107SOL     OW64114   6.014   4.148   2.382
20107SOL    HW164115   6.044   4.076   2.320
20107SOL    HW264116   5.975   4.108   2.465
20108SOL     OW64117   7.291   5.211   2.966
20108SOL    HW164118   7.198   5.186   2.939
20108SOL    HW264119   7.317   5.161   3.048
20109SOL     OW64120   5.903   4.271   3.142
20109SOL    HW164121   5.941   4.212   3.214
20109SOL    HW264122   5.943   4.245   3.054
20110SOL     OW64123   6.398   5.310   2.549
20110SOL    HW164124   6.430   5.320   2.455
20110SOL    HW264125   6.319   5.248   2.551
20111SOL     OW64126   7.010   3.938   2.974
20111SOL    HW164127   7.062   3.873   3.029
20111SOL    HW264128   6.961   4.001   3.035
20112SOL     OW64129   6.587   3.758   3.016
20112SOL    HW164130   6.524   3.686   2.985
20112SOL    HW264131   6.680   3.722   3.016
20113SOL     OW64132   6.356   5.054   2.163
20113SOL    HW164133   6.310   4.967   2.180
20113SOL    HW264134   6.447   5.051   2.204
20114SOL     OW64135   6.204   5.291   3.146
20114SOL    HW164136   6.199   5.373   3.203
20114SOL    HW264137   6.293   5.288   3.101
20115SOL     OW64138   6.938   3.776   2.030
20115SOL    HW164139   6.973   3.735   1.946
20115SOL    HW264140   6.848   3.738   2.050
20116SOL     OW64141   6.886   4.177   2.553
20116SOL    HW164142   6.827   4.257   2.557
20116SOL    HW264143   6.901   4.142   2.646
20117SOL     OW64144   7.179   3.945   2.744
20117SOL    HW164145   7.095   3.944   2.798
20117SOL    HW264146   7.181   4.028   2.688
20118SOL     OW64147   5.625   4.801   2.162
20118SOL    HW164148   5.724   4.790   2.153
20118SOL    HW264149   5.585   4.715   2.194
20119SOL     OW64150   6.461   5.370   2.199
20119SOL    HW164151   6.384   5.335   2.145
20119SOL    HW264152   6.429   5.441   2.261
20120SOL     OW64153   5.816   4.352   3.837
20120SOL    HW164154   5.723   4.350   3.874
20120SOL    HW264155   5.817   4.313   3.745
20121SOL     OW64156   5.811   3.999   4.720
20121SOL    HW164157   5.846   3.982   4.812
20121SOL    HW264158   5.723   3.954   4.708
20122SOL     OW64159   5.605   4.092   4.371
20122SOL    HW164160   5.523   4.135   4.410
20122SOL    HW264161   5.577   4.019   4.308
20123SOL     OW64162   6.155   4.999   4.889
20123SOL    HW164163   6.062   4.992   4.852
20123SOL    HW264164   6.166   5.088   4.933
20124SOL     OW64165   7.141   5.235   4.427
20124SOL    HW164166   7.084   5.219   4.508
20124SOL    HW264167   7.082   5.245   4.347
20125SOL     OW64168   6.721   4.427   4.441
20125SOL    HW164169   6.778   4.505   4.416
20125SOL    HW264170   6.661   4.453   4.517
20126SOL     OW64171   7.341   4.331   3.955
20126SOL    HW164172   7.329   4.318   3.856
20126SOL    HW264173   7.311   4.250   4.004
20127SOL     OW64174   6.354   4.868   4.747
20127SOL    HW164175   6.276   4.885   4.807
20127SOL    HW264176   6.388   4.955   4.711
20128SOL     OW64177   6.436   4.522   5.547
20128SOL    HW164178   6.432   4.598   5.612
20128SOL    HW264179   6.458   4.558   5.456
20129SOL     OW64180   6.271   4.736   4.389
20129SOL    HW164181   6.340   4.720   4.459
20129SOL    HW264182   6.198   4.793   4.427
20130SOL     OW64183   6.272   4.885   5.527
20130SOL    HW164184   6.332   4.964   5.541
20130SOL    HW264185   6.186   4.916   5.486
20131SOL     OW64186   5.921   5.159   4.785
20131SOL    HW164187   5.843   5.128   4.732
20131SOL    HW264188   5.979   5.217   4.728
20132SOL     OW64189   7.046   5.229   5.063
20132SOL    HW164190   7.070   5.323   5.089
20132SOL    HW264191   7.030   5.175   5.145
20133SOL     OW64192   6.024   4.116   5.223
20133SOL    HW164193   6.106   4.060   5.232
20133SOL    HW264194   5.943   4.058   5.227
20134SOL     OW64195   7.189   4.171   4.461
20134SOL    HW164196   7.115   4.217   4.411
20134SOL    HW264197   7.240   4.239   4.514
20135SOL     OW64198   5.817   5.437   4.207
20135SOL    HW164199   5.851   5.514   4.261
20135SOL    HW264200   5.861   5.437   4.117
20136SOL     OW64201   6.713   5.065   5.414
20136SOL    HW164202   6.760   5.065   5.502
20136SOL    HW264203   6.665   4.978   5.403
20137SOL     OW64204   5.816   5.158   4.262
20137SOL    HW164205   5.790   5.254   4.262
20137SOL    HW264206   5.745   5.104   4.307
20138SOL     OW64207   5.826   4.815   4.610
20138SOL    HW164208   5.840   4.731   4.662
20138SOL    HW264209   5.771   4.879   4.665
20139SOL     OW64210   6.206   5.510   5.163
20139SOL    HW164211   6.114   5.493   5.198
20139SOL    HW264212   6.234   5.602   5.189
20140SOL     OW64213   6.192   4.688   3.847
20140SOL    HW164214   6.199   4.772   3.793
20140SOL    HW264215   6.238   4.701   3.935
20141SOL     OW64216   7.180   3.838   5.204
20141SOL    HW164217   7.162   3.905   5.132
20141SOL    HW264218   7.177   3.884   5.293
20142SOL     OW64219   5.708   4.367   4.287
20142SOL    HW164220   5.663   4.279   4.304
20142SOL    HW264221   5.707   4.421   4.371
20143SOL     OW64222   7.428   5.491   4.083
20143SOL    HW164223   7.482   5.462   4.163
20143SOL    HW264224   7.458   5.581   4.054
20144SOL     OW64225   5.613   5.320   3.841
20144SOL    HW164226   5.594   5.224   3.862
20144SOL    HW264227   5.580   5.378   3.916
20145SOL     OW64228   7.275   4.646   4.336
20145SOL    HW164229   7.370   4.617   4.344
20145SOL    HW264230   7.267   4.711   4.261
20146SOL     OW64231   7.227   4.832   4.156
20146SOL    HW164232   7.313   4.834   4.104
20146SOL    HW264233   7.241   4.879   4.244
20147SOL     OW64234   5.699   4.461   5.321
20147SOL    HW164235   5.787   4.448   5.366
20147SOL    HW264236   5.686   4.558   5.299
20148SOL     OW64237   6.199   5.089   4.450
20148SOL    HW164238   6.150   5.002   4.459
20148SOL    HW264239   6.176   5.132   4.363
20149SOL     OW64240   6.879   4.952   5.147
20149SOL    HW164241   6.916   4.879   5.089
20149SOL    HW264242   6.931   4.957   5.232
20150SOL     OW64243   6.395   3.728   4.226
20150SOL    HW164244   6.435   3.819   4.217
20150SOL    HW264245   6.295   3.736   4.232
20151SOL     OW64246   5.783   4.700   4.988
20151SOL    HW164247   5.872   4.655   4.974
20151SOL    HW264248   5.710   4.635   4.969
20152SOL     OW64249   7.111   4.723   3.914
20152SOL    HW164250   7.048   4.647   3.927
20152SOL    HW264251   7.159   4.741   4.000
20153SOL     OW64252   6.773   5.516   5.340
20153SOL    HW164253   6.797   5.576   5.264
20153SOL    HW264254   6.780   5.421   5.310
20154SOL     OW64255   5.903   3.975   5.525
20154SOL    HW164256   5.974   4.046   5.531
20154SOL    HW264257   5.815   4.014   5.553
20155SOL     OW64258   7.052   5.141   4.677
20155SOL    HW164259   6.993   5.147   4.757
20155SOL    HW264260   7.037   5.053   4.631
20156SOL     OW64261   7.253   5.438   4.296
20156SOL    HW164262   7.212   5.415   4.208
20156SOL    HW264263   7.235   5.364   4.361
20157SOL     OW64264   6.184   4.453   3.994
20157SOL    HW164265   6.208   4.522   3.926
20157SOL    HW264266   6.106   4.486   4.048
20158SOL     OW64267   6.867   4.069   4.668
20158SOL    HW164268   6.781   4.019   4.655
20158SOL    HW264269   6.929   4.015   4.724
20159SOL     OW64270   7.162   5.386   4.031
20159SOL    HW164271   7.251   5.432   4.034
20159SOL    HW264272   7.141   5.362   3.936
20160SOL     OW64273   6.393   4.329   5.189
20160SOL    HW164274   6.346   4.326   5.278
20160SOL    HW264275   6.342   4.274   5.123
20161SOL     OW64276   6.980   4.193   5.398
20161SOL    HW164277   6.960   4.236   5.486
20161SOL    HW264278   7.058   4.131   5.407
20162SOL     OW64279   6.559   4.614   5.296
20162SOL    HW164280   6.605   4.530   5.267
20162SOL    HW264281   6.503   4.648   5.221
20163SOL     OW64282   6.577   4.134   4.966
20163SOL    HW164283   6.500   4.168   5.020
20163SOL    HW264284   6.543   4.083   4.887
20164SOL     OW64285   6.627   4.425   4.153
20164SOL    HW164286   6.653   4.421   4.249
20164SOL    HW264287   6.542   4.374   4.139
20165SOL     OW64288   5.662   4.535   4.513
20165SOL    HW164289   5.761   4.523   4.522
20165SOL    HW264290   5.638   4.630   4.534
20166SOL     OW64291   5.716   5.545   5.295
20166SOL    HW164292   5.706   5.530   5.394
20166SOL    HW264293   5.630   5.581   5.259
20167SOL     OW64294   6.451   4.072   3.919
20167SOL    HW164295   6.510   4.135   3.870
20167SOL    HW264296   6.470   3.978   3.890
20168SOL     OW64297   7.305   4.309   5.555
20168SOL    HW164298   7.279   4.398   5.519
20168SOL    HW264299   7.303   4.241   5.482
20169SOL     OW64300   6.948   4.868   4.269
20169SOL    HW164301   7.031   4.839   4.221
20169SOL    HW264302   6.899   4.935   4.213
20170SOL     OW64303   6.136   3.920   4.609
20170SOL    HW164304   6.131   3.915   4.709
20170SOL    HW264305   6.138   4.016   4.580
20171SOL     OW64306   6.594   5.180   4.201
20171SOL    HW164307   6.548   5.252   4.149
20171SOL    HW264308   6.590   5.200   4.299
20172SOL     OW64309   5.937   5.525   4.577
20172SOL    HW164310   5.987   5.439   4.583
20172SOL    HW264311   6.002   5.602   4.574
20173SOL     OW64312   7.381   4.790   4.597
20173SOL    HW164313   7.319   4.775   4.521
20173SOL    HW264314   7.329   4.801   4.682
20174SOL     OW64315   6.813   5.274   5.230
20174SOL    HW164316   6.819   5.197   5.294
20174SOL    HW264317   6.761   5.248   5.150
20175SOL     OW64318   5.907   4.667   3.966
20175SOL    HW164319   5.989   4.706   3.924
20175SOL    HW264320   5.880   4.585   3.917
20176SOL     OW64321   7.044   4.459   4.452
20176SOL    HW164322   7.039   4.394   4.527
20176SOL    HW264323   7.124   4.518   4.465
20177SOL     OW64324   6.047   4.990   5.451
20177SOL    HW164325   5.997   4.991   5.365
20177SOL    HW264326   5.984   4.972   5.527
20178SOL     OW64327   6.697   5.500   3.961
20178SOL    HW164328   6.637   5.438   4.011
20178SOL    HW264329   6.728   5.456   3.876
20179SOL     OW64330   5.788   4.009   5.222
20179SOL    HW164331   5.708   4.069   5.209
20179SOL    HW264332   5.778   3.960   5.308
20180SOL     OW64333   7.218   5.101   3.805
20180SOL    HW164334   7.186   5.195   3.795
20180SOL    HW264335   7.142   5.038   3.793
20181SOL     OW64336   6.050   5.467   4.047
20181SOL    HW164337   6.083   5.506   4.133
20181SOL    HW264338   6.126   5.460   3.982
20182SOL     OW64339   6.986   3.831   4.150
20182SOL    HW164340   6.962   3.794   4.060
20182SOL    HW264341   7.085   3.847   4.154
20183SOL     OW64342   5.835   5.509   4.965
20183SOL    HW164343   5.892   5.444   5.015
20183SOL    HW264344   5.819   5.476   4.872
20184SOL     OW64345   6.526   5.422   4.628
20184SOL    HW164346   6.606   5.365   4.649
20184SOL    HW264347   6.477   5.382   4.551
20185SOL     OW64348   5.968   4.424   4.204
20185SOL    HW164349   6.013   4.334   4.201
20185SOL    HW264350   5.874   4.413   4.237
20186SOL     OW64351   7.133   3.946   5.453
20186SOL    HW164352   7.128   3.983   5.545
20186SOL    HW264353   7.061   3.877   5.441
20187SOL     OW64354   6.200   3.846   3.841
20187SOL    HW164355   6.298   3.824   3.848
20187SOL    HW264356   6.169   3.829   3.748
20188SOL     OW64357   6.367   3.988   5.473
20188SOL    HW164358   6.434   3.927   5.516
20188SOL    HW264359   6.294   4.007   5.538
20189SOL     OW64360   6.474   5.238   4.919
20189SOL    HW164361   6.451   5.213   4.825
20189SOL    HW264362   6.535   5.169   4.958
20190SOL     OW64363   6.937   4.314   5.157
20190SOL    HW164364   6.965   4.271   5.242
20190SOL    HW264365   6.962   4.410   5.158
20191SOL     OW64366   6.389   5.126   4.648
20191SOL    HW164367   6.479   5.140   4.606
20191SOL    HW264368   6.318   5.128   4.577
20192SOL     OW64369   6.508   4.227   4.623
20192SOL    HW164370   6.483   4.218   4.527
20192SOL    HW264371   6.556   4.145   4.654
20193SOL     OW64372   6.125   3.788   4.236
20193SOL    HW164373   6.044   3.789   4.294
20193SOL    HW264374   6.128   3.871   4.181
20194SOL     OW64375   7.020   4.912   3.765
20194SOL    HW164376   7.052   4.836   3.822
20194SOL    HW264377   6.928   4.939   3.795
20195SOL     OW64378   5.883   3.759   3.895
20195SOL    HW164379   5.932   3.843   3.874
20195SOL    HW264380   5.945   3.694   3.940
20196SOL     OW64381   6.521   3.960   4.204
20196SOL    HW164382   6.473   4.001   4.126
20196SOL    HW264383   6.620   3.958   4.185
20197SOL     OW64384   6.662   4.407   5.188
20197SOL    HW164385   6.582   4.346   5.191
20197SOL    HW264386   6.743   4.354   5.164
20198SOL     OW64387   6.813   5.294   4.517
20198SOL    HW164388   6.834   5.368   4.452
20198SOL    HW264389   6.881   5.294   4.590
20199SOL     OW64390   6.045   4.876   4.465
20199SOL    HW164391   5.974   4.849   4.530
20199SOL    HW264392   6.019   4.848   4.372
20200SOL     OW64393   6.857   5.521   4.315
20200SOL    HW164394   6.901   5.585   4.251
20200SOL    HW264395   6.807   5.573   4.385
20201SOL     OW64396   6.618   4.273   3.740
20201SOL    HW164397   6.577   4.355   3.701
20201SOL    HW264398   6.682   4.299   3.813
20202SOL     OW64399   5.664   4.280   5.110
20202SOL    HW164400   5.756   4.279   5.069
20202SOL    HW264401   5.658   4.354   5.177
20203SOL     OW64402   6.147   3.946   4.871
20203SOL    HW164403   6.185   3.862   4.908
20203SOL    HW264404   6.059   3.965   4.915
20204SOL     OW64405   6.452   4.178   4.366
20204SOL    HW164406   6.420   4.250   4.304
20204SOL    HW264407   6.476   4.097   4.313
20205SOL     OW64408   6.603   3.763   4.477
20205SOL    HW164409   6.531   3.768   4.408
20205SOL    HW264410   6.579   3.694   4.546
20206SOL     OW64411   7.015   4.897   4.591
20206SOL    HW164412   6.960   4.813   4.584
20206SOL    HW264413   7.041   4.926   4.499
20207SOL     OW64414   7.052   4.314   4.716
20207SOL    HW164415   7.022   4.219   4.723
20207SOL    HW264416   7.125   4.330   4.782
20208SOL     OW64417   7.443   4.557   4.101
20208SOL    HW164418   7.485   4.493   4.165
20208SOL    HW264419   7.405   4.506   4.023
20209SOL     OW64420   6.074   5.109   3.898
20209SOL    HW164421   5.987   5.094   3.945
20209SOL    HW264422   6.057   5.135   3.803
20210SOL     OW64423   7.250   5.004   4.381
20210SOL    HW164424   7.349   5.012   4.395
20210SOL    HW264425   7.205   5.088   4.412
20211SOL     OW64426   6.976   4.299   3.802
20211SOL    HW164427   6.922   4.278   3.883
20211SOL    HW264428   7.067   4.258   3.811
20212SOL     OW64429   6.113   3.980   4.052
20212SOL    HW164430   6.140   3.921   3.977
20212SOL    HW264431   6.113   4.075   4.021
20213SOL     OW64432   7.340   4.947   5.312
20213SOL    HW164433   7.431   4.908   5.299
20213SOL    HW264434   7.348   5.043   5.336
20214SOL     OW64435   6.650   5.071   5.064
20214SOL    HW164436   6.570   5.048   5.119
20214SOL    HW264437   6.733   5.045   5.113
20215SOL     OW64438   7.178   5.353   5.349
20215SOL    HW164439   7.205   5.387   5.259
20215SOL    HW264440   7.257   5.315   5.395
20216SOL     OW64441   6.697   4.919   4.824
20216SOL    HW164442   6.657   4.963   4.905
20216SOL    HW264443   6.656   4.956   4.741
20217SOL     OW64444   7.224   4.823   4.803
20217SOL    HW164445   7.229   4.904   4.862
20217SOL    HW264446   7.138   4.825   4.752
20218SOL     OW64447   6.501   3.813   5.126
20218SOL    HW164448   6.526   3.793   5.031
20218SOL    HW264449   6.573   3.869   5.168
20219SOL     OW64450   6.566   4.840   5.443
20219SOL    HW164451   6.467   4.846   5.453
20219SOL    HW264452   6.589   4.760   5.387
20220SOL     OW64453   6.291   4.774   4.092
20220SOL    HW164454   6.277   4.781   4.191
20220SOL    HW264455   6.375   4.723   4.074
20221SOL     OW64456   5.996   4.537   4.975
20221SOL    HW164457   6.082   4.549   5.025
20221SOL    HW264458   5.954   4.450   5.002
20222SOL     OW64459   6.860   4.110   4.986
20222SOL    HW164460   6.881   4.184   5.050
20222SOL    HW264461   6.771   4.127   4.943
20223SOL     OW64462   5.650   5.288   5.055
20223SOL    HW164463   5.604   5.370   5.021
20223SOL    HW264464   5.748   5.307   5.064
20224SOL     OW64465   5.953   4.824   4.225
20224SOL    HW164466   5.946   4.907   4.169
20224SOL    HW264467   5.957   4.744   4.165
20225SOL     OW64468   6.152   4.261   4.589
20225SOL    HW164469   6.164   4.327   4.515
20225SOL    HW264470   6.198   4.295   4.672
20226SOL     OW64471   6.838   5.072   4.112
20226SOL    HW164472   6.888   5.149   4.152
20226SOL    HW264473   6.743   5.074   4.144
20227SOL     OW64474   6.858   5.169   4.866
20227SOL    HW164475   6.905   5.182   4.953
20227SOL    HW264476   6.792   5.095   4.875
20228SOL     OW64477   7.168   4.363   4.196
20228SOL    HW164478   7.137   4.424   4.269
20228SOL    HW264479   7.218   4.415   4.127
20229SOL     OW64480   5.940   5.234   5.053
20229SOL    HW164481   5.919   5.190   4.966
20229SOL    HW264482   6.037   5.260   5.056
20230SOL     OW64483   5.988   4.475   5.322
20230SOL    HW164484   6.056   4.530   5.275
20230SOL    HW264485   6.028   4.387   5.349
20231SOL     OW64486   7.173   4.503   5.394
20231SOL    HW164487   7.081   4.541   5.389
20231SOL    HW264488   7.233   4.550   5.329
20232SOL     OW64489   6.599   3.829   5.494
20232SOL    HW164490   6.605   3.914   5.442
20232SOL    HW264491   6.631   3.753   5.437
20233SOL     OW64492   6.090   3.774   5.464
20233SOL    HW164493   6.048   3.717   5.394
20233SOL    HW264494   6.024   3.843   5.496
20234SOL     OW64495   6.159   4.594   4.753
20234SOL    HW164496   6.203   4.683   4.744
20234SOL    HW264497   6.096   4.594   4.830
20235SOL     OW64498   6.946   4.586   4.769
20235SOL    HW164499   6.871   4.586   4.703
20235SOL    HW264500   6.983   4.494   4.778
20236SOL     OW64501   6.795   4.249   3.999
20236SOL    HW164502   6.808   4.165   4.053
20236SOL    HW264503   6.766   4.323   4.059
20237SOL     OW64504   5.893   3.937   4.955
20237SOL    HW164505   5.870   3.974   5.045
20237SOL    HW264506   5.863   3.842   4.949
20238SOL     OW64507   5.623   5.034   5.006
20238SOL    HW164508   5.676   4.985   5.074
20238SOL    HW264509   5.645   5.132   5.011
20239SOL     OW64510   6.318   4.358   4.788
20239SOL    HW164511   6.377   4.332   4.712
20239SOL    HW264512   6.290   4.454   4.777
20240SOL     OW64513   7.314   4.659   5.578
20240SOL    HW164514   7.268   4.652   5.489
20240SOL    HW264515   7.252   4.703   5.644
20241SOL     OW64516   5.893   3.787   4.342
20241SOL    HW164517   5.882   3.881   4.375
20241SOL    HW264518   5.888   3.724   4.419
20242SOL     OW64519   7.208   4.091   4.098
20242SOL    HW164520   7.210   4.015   4.162
20242SOL    HW264521   7.160   4.168   4.138
20243SOL     OW64522   6.609   4.490   4.690
20243SOL    HW164523   6.624   4.511   4.786
20243SOL    HW264524   6.579   4.395   4.681
20244SOL     OW64525   6.566   5.297   5.424
20244SOL    HW164526   6.546   5.341   5.336
20244SOL    HW264527   6.605   5.206   5.408
20245SOL     OW64528   7.445   5.242   5.329
20245SOL    HW164529   7.459   5.269   5.234
20245SOL    HW264530   7.528   5.264   5.382
20246SOL     OW64531   5.936   4.622   5.528
20246SOL    HW164532   6.012   4.666   5.576
20246SOL    HW264533   5.971   4.575   5.446
20247SOL     OW64534   7.126   3.998   3.849
20247SOL    HW164535   7.065   3.923   3.872
20247SOL    HW264536   7.148   4.050   3.932
20248SOL     OW64537   6.889   4.562   3.766
20248SOL    HW164538   6.923   4.469   3.781
20248SOL    HW264539   6.907   4.589   3.671
20249SOL     OW64540   6.654   5.057   4.573
20249SOL    HW164541   6.661   4.973   4.518
20249SOL    HW264542   6.716   5.126   4.537
20250SOL     OW64543   5.905   4.534   4.673
20250SOL    HW164544   5.998   4.570   4.678
20250SOL    HW264545   5.899   4.449   4.725
20251SOL     OW64546   5.925   4.233   4.730
20251SOL    HW164547   5.873   4.150   4.713
20251SOL    HW264548   6.002   4.238   4.666
20252SOL     OW64549   6.724   4.104   5.402
20252SOL    HW164550   6.679   4.167   5.466
20252SOL    HW264551   6.817   4.135   5.385
20253SOL     OW64552   6.746   3.931   5.201
20253SOL    HW164553   6.746   3.995   5.278
20253SOL    HW264554   6.774   3.979   5.118
20254SOL     OW64555   5.594   5.050   3.924
20254SOL    HW164556   5.501   5.071   3.893
20254SOL    HW264557   5.604   4.951   3.937
20255SOL     OW64558   5.674   5.525   4.651
20255SOL    HW164559   5.632   5.439   4.624
20255SOL    HW264560   5.768   5.528   4.617
20256SOL     OW64561   6.090   5.292   4.634
20256SOL    HW164562   6.156   5.366   4.643
20256SOL    HW264563   6.134   5.213   4.592
20257SOL     OW64564   6.588   4.520   4.962
20257SOL    HW164565   6.629   4.488   5.048
20257SOL    HW264566   6.492   4.493   4.959
20258SOL     OW64567   5.626   4.268   4.838
20258SOL    HW164568   5.711   4.235   4.797
20258SOL    HW264569   5.639   4.283   4.936
20259SOL     OW64570   5.775   4.244   5.446
20259SOL    HW164571   5.834   4.204   5.376
20259SOL    HW264572   5.717   4.315   5.405
20260SOL     OW64573   6.955   4.674   5.384
20260SOL    HW164574   6.994   4.763   5.404
20260SOL    HW264575   6.965   4.654   5.287
20261SOL     OW64576   6.401   4.296   4.049
20261SOL    HW164577   6.408   4.207   4.003
20261SOL    HW264578   6.307   4.330   4.041
20262SOL     OW64579   7.243   4.328   4.930
20262SOL    HW164580   7.205   4.259   4.992
20262SOL    HW264581   7.325   4.292   4.886
20263SOL     OW64582   5.838   5.288   5.468
20263SOL    HW164583   5.808   5.345   5.544
20263SOL    HW264584   5.831   5.191   5.494
20264SOL     OW64585   6.257   4.188   4.993
20264SOL    HW164586   6.223   4.099   4.963
20264SOL    HW264587   6.283   4.242   4.913
20265SOL     OW64588   6.516   5.402   5.189
20265SOL    HW164589   6.492   5.384   5.094
20265SOL    HW264590   6.546   5.496   5.199
20266SOL     OW64591   6.059   4.224   3.915
20266SOL    HW164592   6.120   4.304   3.919
20266SOL    HW264593   5.964   4.255   3.922
20267SOL     OW64594   5.745   4.861   5.190
20267SOL    HW164595   5.767   4.800   5.266
20267SOL    HW264596   5.755   4.812   5.104
20268SOL     OW64597   6.933   4.783   4.958
20268SOL    HW164598   6.957   4.720   4.884
20268SOL    HW264599   6.843   4.823   4.940
20269SOL     OW64600   6.888   4.579   4.033
20269SOL    HW164601   6.802   4.548   4.075
20269SOL    HW264602   6.884   4.565   3.934
20270SOL     OW64603   7.345   5.471   4.878
20270SOL    HW164604   7.406   5.501   4.805
20270SOL    HW264605   7.307   5.382   4.856
20271SOL     OW64606   6.838   5.455   4.852
20271SOL    HW164607   6.922   5.460   4.798
20271SOL    HW264608   6.815   5.359   4.870
20272SOL     OW64609   5.669   4.982   4.746
20272SOL    HW164610   5.664   4.981   4.846
20272SOL    HW264611   5.586   4.941   4.708
20273SOL     OW64612   6.274   5.386   5.440
20273SOL    HW164613   6.218   5.467   5.449
20273SOL    HW264614   6.326   5.390   5.354
20274SOL     OW64615   7.312   3.859   4.247
20274SOL    HW164616   7.385   3.842   4.180
20274SOL    HW264617   7.281   3.772   4.285
20275SOL     OW64618   6.974   5.297   4.201
20275SOL    HW164619   7.041   5.309   4.127
20275SOL    HW264620   6.934   5.386   4.224
20276SOL     OW64621   5.716   5.518   5.575
20276SOL    HW164622   5.675   5.444   5.628
20276SOL    HW264623   5.780   5.569   5.633
20277SOL     OW64624   6.866   4.651   4.396
20277SOL    HW164625   6.926   4.570   4.398
20277SOL    HW264626   6.906   4.720   4.336
20278SOL     OW64627   6.416   4.997   5.146
20278SOL    HW164628   6.411   5.030   5.241
20278SOL    HW264629   6.330   5.016   5.100
20279SOL     OW64630   6.258   5.340   3.878
20279SOL    HW164631   6.267   5.350   3.779
20279SOL    HW264632   6.218   5.251   3.899
20280SOL     OW64633   7.236   5.444   5.118
20280SOL    HW164634   7.289   5.454   5.034
20280SOL    HW264635   7.209   5.534   5.152
20281SOL     OW64636   7.427   3.899   4.687
20281SOL    HW164637   7.466   3.814   4.651
20281SOL    HW264638   7.329   3.901   4.668
20282SOL     OW64639   5.849   4.050   4.444
20282SOL    HW164640   5.770   4.101   4.410
20282SOL    HW264641   5.840   4.035   4.542
20283SOL     OW64642   6.780   5.336   3.755
20283SOL    HW164643   6.786   5.243   3.792
20283SOL    HW264644   6.721   5.336   3.675
20284SOL     OW64645   6.408   4.726   5.096
20284SOL    HW164646   6.448   4.725   5.004
20284SOL    HW264647   6.418   4.818   5.136
20285SOL     OW64648   6.502   4.634   4.015
20285SOL    HW164649   6.565   4.672   3.947
20285SOL    HW264650   6.542   4.551   4.054
20286SOL     OW64651   7.090   5.331   3.768
20286SOL    HW164652   6.998   5.368   3.775
20286SOL    HW264653   7.128   5.351   3.678
20287SOL     OW64654   5.958   5.012   5.214
20287SOL    HW164655   5.945   5.105   5.180
20287SOL    HW264656   5.874   4.960   5.201
20288SOL     OW64657   7.200   5.016   5.013
20288SOL    HW164658   7.260   5.019   5.093
20288SOL    HW264659   7.125   5.080   5.026
20289SOL     OW64660   6.625   4.822   4.420
20289SOL    HW164661   6.555   4.775   4.474
20289SOL    HW264662   6.684   4.754   4.377
20290SOL     OW64663   6.600   3.960   4.695
20290SOL    HW164664   6.592   3.924   4.602
20290SOL    HW264665   6.598   3.884   4.760
20291SOL     OW64666   6.176   5.211   4.215
20291SOL    HW164667   6.218   5.153   4.145
20291SOL    HW264668   6.132   5.290   4.171
20292SOL     OW64669   7.295   4.109   5.105
20292SOL    HW164670   7.368   4.178   5.109
20292SOL    HW264671   7.323   4.034   5.046
20293SOL     OW64672   5.841   5.072   4.014
20293SOL    HW164673   5.745   5.073   3.987
20293SOL    HW264674   5.853   5.125   4.098
20294SOL     OW64675   5.691   4.737   5.450
20294SOL    HW164676   5.614   4.704   5.504
20294SOL    HW264677   5.776   4.707   5.492
20295SOL     OW64678   6.258   3.927   5.213
20295SOL    HW164679   6.348   3.911   5.173
20295SOL    HW264680   6.266   3.932   5.312
20296SOL     OW64681   5.661   4.069   3.757
20296SOL    HW164682   5.569   4.041   3.728
20296SOL    HW264683   5.692   4.146   3.701
20297SOL     OW64684   7.026   4.580   5.122
20297SOL    HW164685   6.969   4.632   5.059
20297SOL    HW264686   7.122   4.592   5.098
20298SOL     OW64687   5.658   3.890   4.042
20298SOL    HW164688   5.641   3.973   3.988
20298SOL    HW264689   5.748   3.853   4.020
20299SOL     OW64690   6.769   5.059   3.843
20299SOL    HW164691   6.670   5.048   3.845
20299SOL    HW264692   6.803   5.074   3.936
20300SOL     OW64693   6.199   4.566   5.155
20300SOL    HW164694   6.255   4.647   5.138
20300SOL    HW264695   6.258   4.486   5.158
20301SOL     OW64696   7.079   5.491   4.683
20301SOL    HW164697   7.112   5.555   4.614
20301SOL    HW264698   7.145   5.485   4.758
20302SOL     OW64699   6.302   4.289   5.432
20302SOL    HW164700   6.321   4.354   5.506
20302SOL    HW264701   6.362   4.209   5.441
20303SOL     OW64702   7.036   4.944   5.357
20303SOL    HW164703   7.027   4.934   5.456
20303SOL    HW264704   7.132   4.937   5.331
20304SOL     OW64705   5.976   5.465   5.284
20304SOL    HW164706   5.885   5.506   5.282
20304SOL    HW264707   5.969   5.371   5.316
20305SOL     OW64708   7.260   4.607   4.978
20305SOL    HW164709   7.233   4.518   4.941
20305SOL    HW264710   7.261   4.675   4.905
20306SOL     OW64711   6.811   4.049   4.173
20306SOL    HW164712   6.876   3.975   4.162
20306SOL    HW264713   6.831   4.099   4.257
20307SOL     OW64714   6.180   4.469   4.376
20307SOL    HW164715   6.230   4.554   4.357
20307SOL    HW264716   6.092   4.471   4.328
20308SOL     OW64717   7.363   4.066   5.366
20308SOL    HW164718   7.346   4.097   5.272
20308SOL    HW264719   7.279   4.029   5.404
20309SOL     OW64720   7.316   4.658   5.241
20309SOL    HW164721   7.354   4.749   5.256
20309SOL    HW264722   7.308   4.641   5.142
20310SOL     OW64723   6.445   5.098   3.740
20310SOL    HW164724   6.399   5.113   3.828
20310SOL    HW264725   6.489   5.183   3.710
20311SOL     OW64726   6.247   5.514   4.677
20311SOL    HW164727   6.201   5.602   4.664
20311SOL    HW264728   6.346   5.526   4.670
20312SOL     OW64729   6.445   4.680   4.585
20312SOL    HW164730   6.499   4.611   4.633
20312SOL    HW264731   6.413   4.749   4.651
20313SOL     OW64732   6.669   4.708   3.811
20313SOL    HW164733   6.646   4.761   3.729
20313SOL    HW264734   6.750   4.652   3.792
20314SOL     OW64735   7.447   5.293   4.575
20314SOL    HW164736   7.376   5.281   4.505
20314SOL    HW264737   7.448   5.214   4.635
20315SOL     OW64738   5.807   5.038   5.568
20315SOL    HW164739   5.742   4.965   5.547
20315SOL    HW264740   5.811   5.052   5.666
20316SOL     OW64741   5.665   4.964   4.377
20316SOL    HW164742   5.664   4.917   4.465
20316SOL    HW264743   5.747   4.936   4.326
20317SOL     OW64744   6.258   5.115   5.348
20317SOL    HW164745   6.180   5.065   5.386
20317SOL    HW264746   6.255   5.210   5.379
20318SOL     OW64747   7.410   3.916   4.951
20318SOL    HW164748   7.406   3.826   4.995
20318SOL    HW264749   7.413   3.905   4.852
20319SOL     OW64750   6.014   4.148   4.244
20319SOL    HW164751   6.044   4.076   4.182
20319SOL    HW264752   5.975   4.108   4.327
20320SOL     OW64753   7.291   5.211   4.828
20320SOL    HW164754   7.198   5.186   4.801
20320SOL    HW264755   7.317   5.161   4.910
20321SOL     OW64756   5.903   4.271   5.004
20321SOL    HW164757   5.941   4.212   5.076
20321SOL    HW264758   5.943   4.245   4.916
20322SOL     OW64759   6.398   5.310   4.411
20322SOL    HW164760   6.430   5.320   4.317
20322SOL    HW264761   6.319   5.248   4.413
20323SOL     OW64762   7.010   3.938   4.836
20323SOL    HW164763   7.062   3.873   4.891
20323SOL    HW264764   6.961   4.001   4.897
20324SOL     OW64765   6.587   3.758   4.878
20324SOL    HW164766   6.524   3.686   4.847
20324SOL    HW264767   6.680   3.722   4.878
20325SOL     OW64768   6.356   5.054   4.025
20325SOL    HW164769   6.310   4.967   4.042
20325SOL    HW264770   6.447   5.051   4.066
20326SOL     OW64771   6.204   5.291   5.008
20326SOL    HW164772   6.199   5.373   5.065
20326SOL    HW264773   6.293   5.288   4.963
20327SOL     OW64774   6.938   3.776   3.892
20327SOL    HW164775   6.973   3.735   3.808
20327SOL    HW264776   6.848   3.738   3.912
20328SOL     OW64777   6.886   4.177   4.415
20328SOL    HW164778   6.827   4.257   4.419
20328SOL    HW264779   6.901   4.142   4.508
20329SOL     OW64780   7.179   3.945   4.606
20329SOL    HW164781   7.095   3.944   4.660
20329SOL    HW264782   7.181   4.028   4.550
20330SOL     OW64783   5.625   4.801   4.024
20330SOL    HW164784   5.724   4.790   4.015
20330SOL    HW264785   5.585   4.715   4.056
20331SOL     OW64786   6.461   5.370   4.061
20331SOL    HW164787   6.384   5.335   4.007
20331SOL    HW264788   6.429   5.441   4.123
20332SOL     OW64789   5.816   4.352   5.699
20332SOL    HW164790   5.723   4.350   5.736
20332SOL    HW264791   5.817   4.313   5.607
20333SOL     OW64792   5.811   3.999   6.582
20333SOL    HW164793   5.846   3.982   6.674
20333SOL    HW264794   5.723   3.954   6.570
20334SOL     OW64795   5.605   4.092   6.233
20334SOL    HW164796   5.523   4.135   6.272
20334SOL    HW264797   5.577   4.019   6.170
20335SOL     OW64798   6.155   4.999   6.751
20335SOL    HW164799   6.062   4.992   6.714
20335SOL    HW264800   6.166   5.088   6.795
20336SOL     OW64801   7.141   5.235   6.289
20336SOL    HW164802   7.084   5.219   6.370
20336SOL    HW264803   7.082   5.245   6.209
20337SOL     OW64804   6.721   4.427   6.303
20337SOL    HW164805   6.778   4.505   6.278
20337SOL    HW264806   6.661   4.453   6.379
20338SOL     OW64807   7.341   4.331   5.817
20338SOL    HW164808   7.329   4.318   5.718
20338SOL    HW264809   7.311   4.250   5.866
20339SOL     OW64810   6.354   4.868   6.609
20339SOL    HW164811   6.276   4.885   6.669
20339SOL    HW264812   6.388   4.955   6.573
20340SOL     OW64813   6.436   4.522   7.409
20340SOL    HW164814   6.432   4.598   7.474
20340SOL    HW264815   6.458   4.558   7.318
20341SOL     OW64816   6.271   4.736   6.251
20341SOL    HW164817   6.340   4.720   6.321
20341SOL    HW264818   6.198   4.793   6.289
20342SOL     OW64819   6.272   4.885   7.389
20342SOL    HW164820   6.332   4.964   7.403
20342SOL    HW264821   6.186   4.916   7.348
20343SOL     OW64822   5.921   5.159   6.647
20343SOL    HW164823   5.843   5.128   6.594
20343SOL    HW264824   5.979   5.217   6.590
20344SOL     OW64825   7.046   5.229   6.925
20344SOL    HW164826   7.070   5.323   6.951
20344SOL    HW264827   7.030   5.175   7.007
20345SOL     OW64828   6.024   4.116   7.085
20345SOL    HW164829   6.106   4.060   7.094
20345SOL    HW264830   5.943   4.058   7.089
20346SOL     OW64831   7.189   4.171   6.323
20346SOL    HW164832   7.115   4.217   6.273
20346SOL    HW264833   7.240   4.239   6.376
20347SOL     OW64834   5.817   5.437   6.069
20347SOL    HW164835   5.851   5.514   6.123
20347SOL    HW264836   5.861   5.437   5.979
20348SOL     OW64837   6.713   5.065   7.276
20348SOL    HW164838   6.760   5.065   7.364
20348SOL    HW264839   6.665   4.978   7.265
20349SOL     OW64840   5.816   5.158   6.124
20349SOL    HW164841   5.790   5.254   6.124
20349SOL    HW264842   5.745   5.104   6.169
20350SOL     OW64843   5.826   4.815   6.472
20350SOL    HW164844   5.840   4.731   6.524
20350SOL    HW264845   5.771   4.879   6.527
20351SOL     OW64846   6.206   5.510   7.025
20351SOL    HW164847   6.114   5.493   7.060
20351SOL    HW264848   6.234   5.602   7.051
20352SOL     OW64849   6.192   4.688   5.709
20352SOL    HW164850   6.199   4.772   5.655
20352SOL    HW264851   6.238   4.701   5.797
20353SOL     OW64852   7.180   3.838   7.066
20353SOL    HW164853   7.162   3.905   6.994
20353SOL    HW264854   7.177   3.884   7.155
20354SOL     OW64855   5.708   4.367   6.149
20354SOL    HW164856   5.663   4.279   6.166
20354SOL    HW264857   5.707   4.421   6.233
20355SOL     OW64858   7.428   5.491   5.945
20355SOL    HW164859   7.482   5.462   6.025
20355SOL    HW264860   7.458   5.581   5.916
20356SOL     OW64861   5.613   5.320   5.703
20356SOL    HW164862   5.594   5.224   5.724
20356SOL    HW264863   5.580   5.378   5.778
20357SOL     OW64864   7.275   4.646   6.198
20357SOL    HW164865   7.370   4.617   6.206
20357SOL    HW264866   7.267   4.711   6.123
20358SOL     OW64867   7.227   4.832   6.018
20358SOL    HW164868   7.313   4.834   5.966
20358SOL    HW264869   7.241   4.879   6.106
20359SOL     OW64870   5.699   4.461   7.183
20359SOL    HW164871   5.787   4.448   7.228
20359SOL    HW264872   5.686   4.558   7.161
20360SOL     OW64873   6.199   5.089   6.312
20360SOL    HW164874   6.150   5.002   6.321
20360SOL    HW264875   6.176   5.132   6.225
20361SOL     OW64876   6.879   4.952   7.009
20361SOL    HW164877   6.916   4.879   6.951
20361SOL    HW264878   6.931   4.957   7.094
20362SOL     OW64879   6.395   3.728   6.088
20362SOL    HW164880   6.435   3.819   6.079
20362SOL    HW264881   6.295   3.736   6.094
20363SOL     OW64882   5.783   4.700   6.850
20363SOL    HW164883   5.872   4.655   6.836
20363SOL    HW264884   5.710   4.635   6.831
20364SOL     OW64885   7.111   4.723   5.776
20364SOL    HW164886   7.048   4.647   5.789
20364SOL    HW264887   7.159   4.741   5.862
20365SOL     OW64888   6.773   5.516   7.202
20365SOL    HW164889   6.797   5.576   7.126
20365SOL    HW264890   6.780   5.421   7.172
20366SOL     OW64891   5.903   3.975   7.387
20366SOL    HW164892   5.974   4.046   7.393
20366SOL    HW264893   5.815   4.014   7.415
20367SOL     OW64894   7.052   5.141   6.539
20367SOL    HW164895   6.993   5.147   6.619
20367SOL    HW264896   7.037   5.053   6.493
20368SOL     OW64897   7.253   5.438   6.158
20368SOL    HW164898   7.212   5.415   6.070
20368SOL    HW264899   7.235   5.364   6.223
20369SOL     OW64900   6.184   4.453   5.856
20369SOL    HW164901   6.208   4.522   5.788
20369SOL    HW264902   6.106   4.486   5.910
20370SOL     OW64903   6.867   4.069   6.530
20370SOL    HW164904   6.781   4.019   6.517
20370SOL    HW264905   6.929   4.015   6.586
20371SOL     OW64906   7.162   5.386   5.893
20371SOL    HW164907   7.251   5.432   5.896
20371SOL    HW264908   7.141   5.362   5.798
20372SOL     OW64909   6.393   4.329   7.051
20372SOL    HW164910   6.346   4.326   7.140
20372SOL    HW264911   6.342   4.274   6.985
20373SOL     OW64912   6.980   4.193   7.260
20373SOL    HW164913   6.960   4.236   7.348
20373SOL    HW264914   7.058   4.131   7.269
20374SOL     OW64915   6.559   4.614   7.158
20374SOL    HW164916   6.605   4.530   7.129
20374SOL    HW264917   6.503   4.648   7.083
20375SOL     OW64918   6.577   4.134   6.828
20375SOL    HW164919   6.500   4.168   6.882
20375SOL    HW264920   6.543   4.083   6.749
20376SOL     OW64921   6.627   4.425   6.015
20376SOL    HW164922   6.653   4.421   6.111
20376SOL    HW264923   6.542   4.374   6.001
20377SOL     OW64924   5.662   4.535   6.375
20377SOL    HW164925   5.761   4.523   6.384
20377SOL    HW264926   5.638   4.630   6.396
20378SOL     OW64927   5.716   5.545   7.157
20378SOL    HW164928   5.706   5.530   7.256
20378SOL    HW264929   5.630   5.581   7.121
20379SOL     OW64930   6.451   4.072   5.781
20379SOL    HW164931   6.510   4.135   5.732
20379SOL    HW264932   6.470   3.978   5.752
20380SOL     OW64933   7.305   4.309   7.417
20380SOL    HW164934   7.279   4.398   7.381
20380SOL    HW264935   7.303   4.241   7.344
20381SOL     OW64936   6.948   4.868   6.131
20381SOL    HW164937   7.031   4.839   6.083
20381SOL    HW264938   6.899   4.935   6.075
20382SOL     OW64939   6.136   3.920   6.471
20382SOL    HW164940   6.131   3.915   6.571
20382SOL    HW264941   6.138   4.016   6.442
20383SOL     OW64942   6.594   5.180   6.063
20383SOL    HW164943   6.548   5.252   6.011
20383SOL    HW264944   6.590   5.200   6.161
20384SOL     OW64945   5.937   5.525   6.439
20384SOL    HW164946   5.987   5.439   6.445
20384SOL    HW264947   6.002   5.602   6.436
20385SOL     OW64948   7.381   4.790   6.459
20385SOL    HW164949   7.319   4.775   6.383
20385SOL    HW264950   7.329   4.801   6.544
20386SOL     OW64951   6.813   5.274   7.092
20386SOL    HW164952   6.819   5.197   7.156
20386SOL    HW264953   6.761   5.248   7.012
20387SOL     OW64954   5.907   4.667   5.828
20387SOL    HW164955   5.989   4.706   5.786
20387SOL    HW264956   5.880   4.585   5.779
20388SOL     OW64957   7.044   4.459   6.314
20388SOL    HW164958   7.039   4.394   6.389
20388SOL    HW264959   7.124   4.518   6.327
20389SOL     OW64960   6.047   4.990   7.313
20389SOL    HW164961   5.997   4.991   7.227
20389SOL    HW264962   5.984   4.972   7.389
20390SOL     OW64963   6.697   5.500   5.823
20390SOL    HW164964   6.637   5.438   5.873
20390SOL    HW264965   6.728   5.456   5.738
20391SOL     OW64966   5.788   4.009   7.084
20391SOL    HW164967   5.708   4.069   7.071
20391SOL    HW264968   5.778   3.960   7.170
20392SOL     OW64969   7.218   5.101   5.667
20392SOL    HW164970   7.186   5.195   5.657
20392SOL    HW264971   7.142   5.038   5.655
20393SOL     OW64972   6.050   5.467   5.909
20393SOL    HW164973   6.083   5.506   5.995
20393SOL    HW264974   6.126   5.460   5.844
20394SOL     OW64975   6.986   3.831   6.012
20394SOL    HW164976   6.962   3.794   5.922
20394SOL    HW264977   7.085   3.847   6.016
20395SOL     OW64978   5.835   5.509   6.827
20395SOL    HW164979   5.892   5.444   6.877
20395SOL    HW264980   5.819   5.476   6.734
20396SOL     OW64981   6.526   5.422   6.490
20396SOL    HW164982   6.606   5.365   6.511
20396SOL    HW264983   6.477   5.382   6.413
20397SOL     OW64984   5.968   4.424   6.066
20397SOL    HW164985   6.013   4.334   6.063
20397SOL    HW264986   5.874   4.413   6.099
20398SOL     OW64987   7.133   3.946   7.315
20398SOL    HW164988   7.128   3.983   7.407
20398SOL    HW264989   7.061   3.877   7.303
20399SOL     OW64990   6.200   3.846   5.703
20399SOL    HW164991   6.298   3.824   5.710
20399SOL    HW264992   6.169   3.829   5.610
20400SOL     OW64993   6.367   3.988   7.335
20400SOL    HW164994   6.434   3.927   7.378
20400SOL    HW264995   6.294   4.007   7.400
20401SOL     OW64996   6.474   5.238   6.781
20401SOL    HW164997   6.451   5.213   6.687
20401SOL    HW264998   6.535   5.169   6.820
20402SOL     OW64999   6.937   4.314   7.019
20402SOL    HW165000   6.965   4.271   7.104
20402SOL    HW265001   6.962   4.410   7.020
20403SOL     OW65002   6.389   5.126   6.510
20403SOL    HW165003   6.479   5.140   6.468
20403SOL    HW265004   6.318   5.128   6.439
20404SOL     OW65005   6.508   4.227   6.485
20404SOL    HW165006   6.483   4.218   6.389
20404SOL    HW265007   6.556   4.145   6.516
20405SOL     OW65008   6.125   3.788   6.098
20405SOL    HW165009   6.044   3.789   6.156
20405SOL    HW265010   6.128   3.871   6.043
20406SOL     OW65011   7.020   4.912   5.627
20406SOL    HW165012   7.052   4.836   5.684
20406SOL    HW265013   6.928   4.939   5.657
20407SOL     OW65014   5.883   3.759   5.757
20407SOL    HW165015   5.932   3.843   5.736
20407SOL    HW265016   5.945   3.694   5.802
20408SOL     OW65017   6.521   3.960   6.066
20408SOL    HW165018   6.473   4.001   5.988
20408SOL    HW265019   6.620   3.958   6.047
20409SOL     OW65020   6.662   4.407   7.050
20409SOL    HW165021   6.582   4.346   7.053
20409SOL    HW265022   6.743   4.354   7.026
20410SOL     OW65023   6.813   5.294   6.379
20410SOL    HW165024   6.834   5.368   6.314
20410SOL    HW265025   6.881   5.294   6.452
20411SOL     OW65026   6.045   4.876   6.327
20411SOL    HW165027   5.974   4.849   6.392
20411SOL    HW265028   6.019   4.848   6.234
20412SOL     OW65029   6.857   5.521   6.177
20412SOL    HW165030   6.901   5.585   6.113
20412SOL    HW265031   6.807   5.573   6.247
20413SOL     OW65032   6.618   4.273   5.602
20413SOL    HW165033   6.577   4.355   5.563
20413SOL    HW265034   6.682   4.299   5.675
20414SOL     OW65035   5.664   4.280   6.972
20414SOL    HW165036   5.756   4.279   6.931
20414SOL    HW265037   5.658   4.354   7.039
20415SOL     OW65038   6.147   3.946   6.733
20415SOL    HW165039   6.185   3.862   6.770
20415SOL    HW265040   6.059   3.965   6.777
20416SOL     OW65041   6.452   4.178   6.228
20416SOL    HW165042   6.420   4.250   6.166
20416SOL    HW265043   6.476   4.097   6.175
20417SOL     OW65044   6.603   3.763   6.339
20417SOL    HW165045   6.531   3.768   6.270
20417SOL    HW265046   6.579   3.694   6.408
20418SOL     OW65047   7.015   4.897   6.453
20418SOL    HW165048   6.960   4.813   6.446
20418SOL    HW265049   7.041   4.926   6.361
20419SOL     OW65050   7.052   4.314   6.578
20419SOL    HW165051   7.022   4.219   6.585
20419SOL    HW265052   7.125   4.330   6.644
20420SOL     OW65053   7.443   4.557   5.963
20420SOL    HW165054   7.485   4.493   6.027
20420SOL    HW265055   7.405   4.506   5.885
20421SOL     OW65056   6.074   5.109   5.760
20421SOL    HW165057   5.987   5.094   5.807
20421SOL    HW265058   6.057   5.135   5.665
20422SOL     OW65059   7.250   5.004   6.243
20422SOL    HW165060   7.349   5.012   6.257
20422SOL    HW265061   7.205   5.088   6.274
20423SOL     OW65062   6.976   4.299   5.664
20423SOL    HW165063   6.922   4.278   5.745
20423SOL    HW265064   7.067   4.258   5.673
20424SOL     OW65065   6.113   3.980   5.914
20424SOL    HW165066   6.140   3.921   5.839
20424SOL    HW265067   6.113   4.075   5.883
20425SOL     OW65068   7.340   4.947   7.174
20425SOL    HW165069   7.431   4.908   7.161
20425SOL    HW265070   7.348   5.043   7.198
20426SOL     OW65071   6.650   5.071   6.926
20426SOL    HW165072   6.570   5.048   6.981
20426SOL    HW265073   6.733   5.045   6.975
20427SOL     OW65074   7.178   5.353   7.211
20427SOL    HW165075   7.205   5.387   7.121
20427SOL    HW265076   7.257   5.315   7.257
20428SOL     OW65077   6.697   4.919   6.686
20428SOL    HW165078   6.657   4.963   6.767
20428SOL    HW265079   6.656   4.956   6.603
20429SOL     OW65080   7.224   4.823   6.665
20429SOL    HW165081   7.229   4.904   6.724
20429SOL    HW265082   7.138   4.825   6.614
20430SOL     OW65083   6.501   3.813   6.988
20430SOL    HW165084   6.526   3.793   6.893
20430SOL    HW265085   6.573   3.869   7.030
20431SOL     OW65086   6.566   4.840   7.305
20431SOL    HW165087   6.467   4.846   7.315
20431SOL    HW265088   6.589   4.760   7.249
20432SOL     OW65089   6.291   4.774   5.954
20432SOL    HW165090   6.277   4.781   6.053
20432SOL    HW265091   6.375   4.723   5.936
20433SOL     OW65092   5.996   4.537   6.837
20433SOL    HW165093   6.082   4.549   6.887
20433SOL    HW265094   5.954   4.450   6.864
20434SOL     OW65095   6.860   4.110   6.848
20434SOL    HW165096   6.881   4.184   6.912
20434SOL    HW265097   6.771   4.127   6.805
20435SOL     OW65098   5.650   5.288   6.917
20435SOL    HW165099   5.604   5.370   6.883
20435SOL    HW265100   5.748   5.307   6.926
20436SOL     OW65101   5.953   4.824   6.087
20436SOL    HW165102   5.946   4.907   6.031
20436SOL    HW265103   5.957   4.744   6.027
20437SOL     OW65104   6.152   4.261   6.451
20437SOL    HW165105   6.164   4.327   6.377
20437SOL    HW265106   6.198   4.295   6.534
20438SOL     OW65107   6.838   5.072   5.974
20438SOL    HW165108   6.888   5.149   6.014
20438SOL    HW265109   6.743   5.074   6.006
20439SOL     OW65110   6.858   5.169   6.728
20439SOL    HW165111   6.905   5.182   6.815
20439SOL    HW265112   6.792   5.095   6.737
20440SOL     OW65113   7.168   4.363   6.058
20440SOL    HW165114   7.137   4.424   6.131
20440SOL    HW265115   7.218   4.415   5.989
20441SOL     OW65116   5.940   5.234   6.915
20441SOL    HW165117   5.919   5.190   6.828
20441SOL    HW265118   6.037   5.260   6.918
20442SOL     OW65119   5.988   4.475   7.184
20442SOL    HW165120   6.056   4.530   7.137
20442SOL    HW265121   6.028   4.387   7.211
20443SOL     OW65122   7.173   4.503   7.256
20443SOL    HW165123   7.081   4.541   7.251
20443SOL    HW265124   7.233   4.550   7.191
20444SOL     OW65125   6.599   3.829   7.356
20444SOL    HW165126   6.605   3.914   7.304
20444SOL    HW265127   6.631   3.753   7.299
20445SOL     OW65128   6.090   3.774   7.326
20445SOL    HW165129   6.048   3.717   7.256
20445SOL    HW265130   6.024   3.843   7.358
20446SOL     OW65131   6.159   4.594   6.615
20446SOL    HW165132   6.203   4.683   6.606
20446SOL    HW265133   6.096   4.594   6.692
20447SOL     OW65134   6.946   4.586   6.631
20447SOL    HW165135   6.871   4.586   6.565
20447SOL    HW265136   6.983   4.494   6.640
20448SOL     OW65137   6.795   4.249   5.861
20448SOL    HW165138   6.808   4.165   5.915
20448SOL    HW265139   6.766   4.323   5.921
20449SOL     OW65140   5.893   3.937   6.817
20449SOL    HW165141   5.870   3.974   6.907
20449SOL    HW265142   5.863   3.842   6.811
20450SOL     OW65143   5.623   5.034   6.868
20450SOL    HW165144   5.676   4.985   6.936
20450SOL    HW265145   5.645   5.132   6.873
20451SOL     OW65146   6.318   4.358   6.650
20451SOL    HW165147   6.377   4.332   6.574
20451SOL    HW265148   6.290   4.454   6.639
20452SOL     OW65149   7.314   4.659   7.440
20452SOL    HW165150   7.268   4.652   7.351
20452SOL    HW265151   7.252   4.703   7.506
20453SOL     OW65152   5.893   3.787   6.204
20453SOL    HW165153   5.882   3.881   6.237
20453SOL    HW265154   5.888   3.724   6.281
20454SOL     OW65155   7.208   4.091   5.960
20454SOL    HW165156   7.210   4.015   6.024
20454SOL    HW265157   7.160   4.168   6.000
20455SOL     OW65158   6.609   4.490   6.552
20455SOL    HW165159   6.624   4.511   6.648
20455SOL    HW265160   6.579   4.395   6.543
20456SOL     OW65161   6.566   5.297   7.286
20456SOL    HW165162   6.546   5.341   7.198
20456SOL    HW265163   6.605   5.206   7.270
20457SOL     OW65164   7.445   5.242   7.191
20457SOL    HW165165   7.459   5.269   7.096
20457SOL    HW265166   7.528   5.264   7.244
20458SOL     OW65167   5.936   4.622   7.390
20458SOL    HW165168   6.012   4.666   7.438
20458SOL    HW265169   5.971   4.575   7.308
20459SOL     OW65170   7.126   3.998   5.711
20459SOL    HW165171   7.065   3.923   5.734
20459SOL    HW265172   7.148   4.050   5.794
20460SOL     OW65173   6.889   4.562   5.628
20460SOL    HW165174   6.923   4.469   5.643
20460SOL    HW265175   6.907   4.589   5.533
20461SOL     OW65176   6.654   5.057   6.435
20461SOL    HW165177   6.661   4.973   6.380
20461SOL    HW265178   6.716   5.126   6.399
20462SOL     OW65179   5.905   4.534   6.535
20462SOL    HW165180   5.998   4.570   6.540
20462SOL    HW265181   5.899   4.449   6.587
20463SOL     OW65182   5.925   4.233   6.592
20463SOL    HW165183   5.873   4.150   6.575
20463SOL    HW265184   6.002   4.238   6.528
20464SOL     OW65185   6.724   4.104   7.264
20464SOL    HW165186   6.679   4.167   7.328
20464SOL    HW265187   6.817   4.135   7.247
20465SOL     OW65188   6.746   3.931   7.063
20465SOL    HW165189   6.746   3.995   7.140
20465SOL    HW265190   6.774   3.979   6.980
20466SOL     OW65191   5.594   5.050   5.786
20466SOL    HW165192   5.501   5.071   5.755
20466SOL    HW265193   5.604   4.951   5.799
20467SOL     OW65194   5.674   5.525   6.513
20467SOL    HW165195   5.632   5.439   6.486
20467SOL    HW265196   5.768   5.528   6.479
20468SOL     OW65197   6.090   5.292   6.496
20468SOL    HW165198   6.156   5.366   6.505
20468SOL    HW265199   6.134   5.213   6.454
20469SOL     OW65200   6.588   4.520   6.824
20469SOL    HW165201   6.629   4.488   6.910
20469SOL    HW265202   6.492   4.493   6.821
20470SOL     OW65203   5.626   4.268   6.700
20470SOL    HW165204   5.711   4.235   6.659
20470SOL    HW265205   5.639   4.283   6.798
20471SOL     OW65206   5.775   4.244   7.308
20471SOL    HW165207   5.834   4.204   7.238
20471SOL    HW265208   5.717   4.315   7.267
20472SOL     OW65209   6.955   4.674   7.246
20472SOL    HW165210   6.994   4.763   7.266
20472SOL    HW265211   6.965   4.654   7.149
20473SOL     OW65212   6.401   4.296   5.911
20473SOL    HW165213   6.408   4.207   5.865
20473SOL    HW265214   6.307   4.330   5.903
20474SOL     OW65215   7.243   4.328   6.792
20474SOL    HW165216   7.205   4.259   6.854
20474SOL    HW265217   7.325   4.292   6.748
20475SOL     OW65218   5.838   5.288   7.330
20475SOL    HW165219   5.808   5.345   7.406
20475SOL    HW265220   5.831   5.191   7.356
20476SOL     OW65221   6.257   4.188   6.855
20476SOL    HW165222   6.223   4.099   6.825
20476SOL    HW265223   6.283   4.242   6.775
20477SOL     OW65224   6.516   5.402   7.051
20477SOL    HW165225   6.492   5.384   6.956
20477SOL    HW265226   6.546   5.496   7.061
20478SOL     OW65227   6.059   4.224   5.777
20478SOL    HW165228   6.120   4.304   5.781
20478SOL    HW265229   5.964   4.255   5.784
20479SOL     OW65230   5.745   4.861   7.052
20479SOL    HW165231   5.767   4.800   7.128
20479SOL    HW265232   5.755   4.812   6.966
20480SOL     OW65233   6.933   4.783   6.820
20480SOL    HW165234   6.957   4.720   6.746
20480SOL    HW265235   6.843   4.823   6.802
20481SOL     OW65236   6.888   4.579   5.895
20481SOL    HW165237   6.802   4.548   5.937
20481SOL    HW265238   6.884   4.565   5.796
20482SOL     OW65239   7.345   5.471   6.740
20482SOL    HW165240   7.406   5.501   6.667
20482SOL    HW265241   7.307   5.382   6.718
20483SOL     OW65242   6.838   5.455   6.714
20483SOL    HW165243   6.922   5.460   6.660
20483SOL    HW265244   6.815   5.359   6.732
20484SOL     OW65245   5.669   4.982   6.608
20484SOL    HW165246   5.664   4.981   6.708
20484SOL    HW265247   5.586   4.941   6.570
20485SOL     OW65248   6.274   5.386   7.302
20485SOL    HW165249   6.218   5.467   7.311
20485SOL    HW265250   6.326   5.390   7.216
20486SOL     OW65251   7.312   3.859   6.109
20486SOL    HW165252   7.385   3.842   6.042
20486SOL    HW265253   7.281   3.772   6.147
20487SOL     OW65254   6.974   5.297   6.063
20487SOL    HW165255   7.041   5.309   5.989
20487SOL    HW265256   6.934   5.386   6.086
20488SOL     OW65257   5.716   5.518   7.437
20488SOL    HW165258   5.675   5.444   7.490
20488SOL    HW265259   5.780   5.569   7.495
20489SOL     OW65260   6.866   4.651   6.258
20489SOL    HW165261   6.926   4.570   6.260
20489SOL    HW265262   6.906   4.720   6.198
20490SOL     OW65263   6.416   4.997   7.008
20490SOL    HW165264   6.411   5.030   7.103
20490SOL    HW265265   6.330   5.016   6.962
20491SOL     OW65266   6.258   5.340   5.740
20491SOL    HW165267   6.267   5.350   5.641
20491SOL    HW265268   6.218   5.251   5.761
20492SOL     OW65269   7.236   5.444   6.980
20492SOL    HW165270   7.289   5.454   6.896
20492SOL    HW265271   7.209   5.534   7.014
20493SOL     OW65272   7.427   3.899   6.549
20493SOL    HW165273   7.466   3.814   6.513
20493SOL    HW265274   7.329   3.901   6.530
20494SOL     OW65275   5.849   4.050   6.306
20494SOL    HW165276   5.770   4.101   6.272
20494SOL    HW265277   5.840   4.035   6.404
20495SOL     OW65278   6.780   5.336   5.617
20495SOL    HW165279   6.786   5.243   5.654
20495SOL    HW265280   6.721   5.336   5.537
20496SOL     OW65281   6.408   4.726   6.958
20496SOL    HW165282   6.448   4.725   6.866
20496SOL    HW265283   6.418   4.818   6.998
20497SOL     OW65284   6.502   4.634   5.877
20497SOL    HW165285   6.565   4.672   5.809
20497SOL    HW265286   6.542   4.551   5.916
20498SOL     OW65287   7.090   5.331   5.630
20498SOL    HW165288   6.998   5.368   5.637
20498SOL    HW265289   7.128   5.351   5.540
20499SOL     OW65290   5.958   5.012   7.076
20499SOL    HW165291   5.945   5.105   7.042
20499SOL    HW265292   5.874   4.960   7.063
20500SOL     OW65293   7.200   5.016   6.875
20500SOL    HW165294   7.260   5.019   6.955
20500SOL    HW265295   7.125   5.080   6.888
20501SOL     OW65296   6.625   4.822   6.282
20501SOL    HW165297   6.555   4.775   6.336
20501SOL    HW265298   6.684   4.754   6.239
20502SOL     OW65299   6.600   3.960   6.557
20502SOL    HW165300   6.592   3.924   6.464
20502SOL    HW265301   6.598   3.884   6.622
20503SOL     OW65302   6.176   5.211   6.077
20503SOL    HW165303   6.218   5.153   6.007
20503SOL    HW265304   6.132   5.290   6.033
20504SOL     OW65305   7.295   4.109   6.967
20504SOL    HW165306   7.368   4.178   6.971
20504SOL    HW265307   7.323   4.034   6.908
20505SOL     OW65308   5.841   5.072   5.876
20505SOL    HW165309   5.745   5.073   5.849
20505SOL    HW265310   5.853   5.125   5.960
20506SOL     OW65311   5.691   4.737   7.312
20506SOL    HW165312   5.614   4.704   7.366
20506SOL    HW265313   5.776   4.707   7.354
20507SOL     OW65314   6.258   3.927   7.075
20507SOL    HW165315   6.348   3.911   7.035
20507SOL    HW265316   6.266   3.932   7.174
20508SOL     OW65317   5.661   4.069   5.619
20508SOL    HW165318   5.569   4.041   5.590
20508SOL    HW265319   5.692   4.146   5.563
20509SOL     OW65320   7.026   4.580   6.984
20509SOL    HW165321   6.969   4.632   6.921
20509SOL    HW265322   7.122   4.592   6.960
20510SOL     OW65323   5.658   3.890   5.904
20510SOL    HW165324   5.641   3.973   5.850
20510SOL    HW265325   5.748   3.853   5.882
20511SOL     OW65326   6.769   5.059   5.705
20511SOL    HW165327   6.670   5.048   5.707
20511SOL    HW265328   6.803   5.074   5.798
20512SOL     OW65329   6.199   4.566   7.017
20512SOL    HW165330   6.255   4.647   7.000
20512SOL    HW265331   6.258   4.486   7.020
20513SOL     OW65332   7.079   5.491   6.545
20513SOL    HW165333   7.112   5.555   6.476
20513SOL    HW265334   7.145   5.485   6.620
20514SOL     OW65335   6.302   4.289   7.294
20514SOL    HW165336   6.321   4.354   7.368
20514SOL    HW265337   6.362   4.209   7.303
20515SOL     OW65338   7.036   4.944   7.219
20515SOL    HW165339   7.027   4.934   7.318
20515SOL    HW265340   7.132   4.937   7.193
20516SOL     OW65341   5.976   5.465   7.146
20516SOL    HW165342   5.885   5.506   7.144
20516SOL    HW265343   5.969   5.371   7.178
20517SOL     OW65344   7.260   4.607   6.840
20517SOL    HW165345   7.233   4.518   6.803
20517SOL    HW265346   7.261   4.675   6.767
20518SOL     OW65347   6.811   4.049   6.035
20518SOL    HW165348   6.876   3.975   6.024
20518SOL    HW265349   6.831   4.099   6.119
20519SOL     OW65350   6.180   4.469   6.238
20519SOL    HW165351   6.230   4.554   6.219
20519SOL    HW265352   6.092   4.471   6.190
20520SOL     OW65353   7.363   4.066   7.228
20520SOL    HW165354   7.346   4.097   7.134
20520SOL    HW265355   7.279   4.029   7.266
20521SOL     OW65356   7.316   4.658   7.103
20521SOL    HW165357   7.354   4.749   7.118
20521SOL    HW265358   7.308   4.641   7.004
20522SOL     OW65359   6.445   5.098   5.602
20522SOL    HW165360   6.399   5.113   5.690
20522SOL    HW265361   6.489   5.183   5.572
20523SOL     OW65362   6.247   5.514   6.539
20523SOL    HW165363   6.201   5.602   6.526
20523SOL    HW265364   6.346   5.526   6.532
20524SOL     OW65365   6.445   4.680   6.447
20524SOL    HW165366   6.499   4.611   6.495
20524SOL    HW265367   6.413   4.749   6.513
20525SOL     OW65368   6.669   4.708   5.673
20525SOL    HW165369   6.646   4.761   5.591
20525SOL    HW265370   6.750   4.652   5.654
20526SOL     OW65371   7.447   5.293   6.437
20526SOL    HW165372   7.376   5.281   6.367
20526SOL    HW265373   7.448   5.214   6.497
20527SOL     OW65374   5.807   5.038   7.430
20527SOL    HW165375   5.742   4.965   7.409
20527SOL    HW265376   5.811   5.052   7.528
20528SOL     OW65377   5.665   4.964   6.239
20528SOL    HW165378   5.664   4.917   6.327
20528SOL    HW265379   5.747   4.936   6.188
20529SOL     OW65380   6.258   5.115   7.210
20529SOL    HW165381   6.180   5.065   7.248
20529SOL    HW265382   6.255   5.210   7.241
20530SOL     OW65383   7.410   3.916   6.813
20530SOL    HW165384   7.406   3.826   6.857
20530SOL    HW265385   7.413   3.905   6.714
20531SOL     OW65386   6.014   4.148   6.106
20531SOL    HW165387   6.044   4.076   6.044
20531SOL    HW265388   5.975   4.108   6.189
20532SOL     OW65389   7.291   5.211   6.690
20532SOL    HW165390   7.198   5.186   6.663
20532SOL    HW265391   7.317   5.161   6.772
20533SOL     OW65392   5.903   4.271   6.866
20533SOL    HW165393   5.941   4.212   6.938
20533SOL    HW265394   5.943   4.245   6.778
20534SOL     OW65395   6.398   5.310   6.273
20534SOL    HW165396   6.430   5.320   6.179
20534SOL    HW265397   6.319   5.248   6.275
20535SOL     OW65398   7.010   3.938   6.698
20535SOL    HW165399   7.062   3.873   6.753
20535SOL    HW265400   6.961   4.001   6.759
20536SOL     OW65401   6.587   3.758   6.740
20536SOL    HW165402   6.524   3.686   6.709
20536SOL    HW265403   6.680   3.722   6.740
20537SOL     OW65404   6.356   5.054   5.887
20537SOL    HW165405   6.310   4.967   5.904
20537SOL    HW265406   6.447   5.051   5.928
20538SOL     OW65407   6.204   5.291   6.870
20538SOL    HW165408   6.199   5.373   6.927
20538SOL    HW265409   6.293   5.288   6.825
20539SOL     OW65410   6.938   3.776   5.754
20539SOL    HW165411   6.973   3.735   5.670
20539SOL    HW265412   6.848   3.738   5.774
20540SOL     OW65413   6.886   4.177   6.277
20540SOL    HW165414   6.827   4.257   6.281
20540SOL    HW265415   6.901   4.142   6.370
20541SOL     OW65416   7.179   3.945   6.468
20541SOL    HW165417   7.095   3.944   6.522
20541SOL    HW265418   7.181   4.028   6.412
20542SOL     OW65419   5.625   4.801   5.886
20542SOL    HW165420   5.724   4.790   5.877
20542SOL    HW265421   5.585   4.715   5.918
20543SOL     OW65422   6.461   5.370   5.923
20543SOL    HW165423   6.384   5.335   5.869
20543SOL    HW265424   6.429   5.441   5.985
20544SOL     OW65425   5.816   4.352   7.561
20544SOL    HW165426   5.723   4.350   7.598
20544SOL    HW265427   5.817   4.313   7.469
20545SOL     OW65428   5.811   3.999   8.444
20545SOL    HW165429   5.846   3.982   8.536
20545SOL    HW265430   5.723   3.954   8.432
20546SOL     OW65431   5.605   4.092   8.095
20546SOL    HW165432   5.523   4.135   8.134
20546SOL    HW265433   5.577   4.019   8.032
20547SOL     OW65434   6.155   4.999   8.613
20547SOL    HW165435   6.062   4.992   8.576
20547SOL    HW265436   6.166   5.088   8.657
20548SOL     OW65437   7.141   5.235   8.151
20548SOL    HW165438   7.084   5.219   8.232
20548SOL    HW265439   7.082   5.245   8.071
20549SOL     OW65440   6.721   4.427   8.165
20549SOL    HW165441   6.778   4.505   8.140
20549SOL    HW265442   6.661   4.453   8.241
20550SOL     OW65443   7.341   4.331   7.679
20550SOL    HW165444   7.329   4.318   7.580
20550SOL    HW265445   7.311   4.250   7.728
20551SOL     OW65446   6.354   4.868   8.471
20551SOL    HW165447   6.276   4.885   8.531
20551SOL    HW265448   6.388   4.955   8.435
20552SOL     OW65449   6.436   4.522   9.271
20552SOL    HW165450   6.432   4.598   9.336
20552SOL    HW265451   6.458   4.558   9.180
20553SOL     OW65452   6.271   4.736   8.113
20553SOL    HW165453   6.340   4.720   8.183
20553SOL    HW265454   6.198   4.793   8.151
20554SOL     OW65455   6.272   4.885   9.251
20554SOL    HW165456   6.332   4.964   9.265
20554SOL    HW265457   6.186   4.916   9.210
20555SOL     OW65458   5.921   5.159   8.509
20555SOL    HW165459   5.843   5.128   8.456
20555SOL    HW265460   5.979   5.217   8.452
20556SOL     OW65461   7.046   5.229   8.787
20556SOL    HW165462   7.070   5.323   8.813
20556SOL    HW265463   7.030   5.175   8.869
20557SOL     OW65464   6.024   4.116   8.947
20557SOL    HW165465   6.106   4.060   8.956
20557SOL    HW265466   5.943   4.058   8.951
20558SOL     OW65467   7.189   4.171   8.185
20558SOL    HW165468   7.115   4.217   8.135
20558SOL    HW265469   7.240   4.239   8.238
20559SOL     OW65470   5.817   5.437   7.931
20559SOL    HW165471   5.851   5.514   7.985
20559SOL    HW265472   5.861   5.437   7.841
20560SOL     OW65473   6.713   5.065   9.138
20560SOL    HW165474   6.760   5.065   9.226
20560SOL    HW265475   6.665   4.978   9.127
20561SOL     OW65476   5.816   5.158   7.986
20561SOL    HW165477   5.790   5.254   7.986
20561SOL    HW265478   5.745   5.104   8.031
20562SOL     OW65479   5.826   4.815   8.334
20562SOL    HW165480   5.840   4.731   8.386
20562SOL    HW265481   5.771   4.879   8.389
20563SOL     OW65482   6.206   5.510   8.887
20563SOL    HW165483   6.114   5.493   8.922
20563SOL    HW265484   6.234   5.602   8.913
20564SOL     OW65485   6.192   4.688   7.571
20564SOL    HW165486   6.199   4.772   7.517
20564SOL    HW265487   6.238   4.701   7.659
20565SOL     OW65488   7.180   3.838   8.928
20565SOL    HW165489   7.162   3.905   8.856
20565SOL    HW265490   7.177   3.884   9.017
20566SOL     OW65491   5.708   4.367   8.011
20566SOL    HW165492   5.663   4.279   8.028
20566SOL    HW265493   5.707   4.421   8.095
20567SOL     OW65494   7.428   5.491   7.807
20567SOL    HW165495   7.482   5.462   7.887
20567SOL    HW265496   7.458   5.581   7.778
20568SOL     OW65497   5.613   5.320   7.565
20568SOL    HW165498   5.594   5.224   7.586
20568SOL    HW265499   5.580   5.378   7.640
20569SOL     OW65500   7.275   4.646   8.060
20569SOL    HW165501   7.370   4.617   8.068
20569SOL    HW265502   7.267   4.711   7.985
20570SOL     OW65503   7.227   4.832   7.880
20570SOL    HW165504   7.313   4.834   7.828
20570SOL    HW265505   7.241   4.879   7.968
20571SOL     OW65506   5.699   4.461   9.045
20571SOL    HW165507   5.787   4.448   9.090
20571SOL    HW265508   5.686   4.558   9.023
20572SOL     OW65509   6.199   5.089   8.174
20572SOL    HW165510   6.150   5.002   8.183
20572SOL    HW265511   6.176   5.132   8.087
20573SOL     OW65512   6.879   4.952   8.871
20573SOL    HW165513   6.916   4.879   8.813
20573SOL    HW265514   6.931   4.957   8.956
20574SOL     OW65515   6.395   3.728   7.950
20574SOL    HW165516   6.435   3.819   7.941
20574SOL    HW265517   6.295   3.736   7.956
20575SOL     OW65518   5.783   4.700   8.712
20575SOL    HW165519   5.872   4.655   8.698
20575SOL    HW265520   5.710   4.635   8.693
20576SOL     OW65521   7.111   4.723   7.638
20576SOL    HW165522   7.048   4.647   7.651
20576SOL    HW265523   7.159   4.741   7.724
20577SOL     OW65524   6.773   5.516   9.064
20577SOL    HW165525   6.797   5.576   8.988
20577SOL    HW265526   6.780   5.421   9.034
20578SOL     OW65527   5.903   3.975   9.249
20578SOL    HW165528   5.974   4.046   9.255
20578SOL    HW265529   5.815   4.014   9.277
20579SOL     OW65530   7.052   5.141   8.401
20579SOL    HW165531   6.993   5.147   8.481
20579SOL    HW265532   7.037   5.053   8.355
20580SOL     OW65533   7.253   5.438   8.020
20580SOL    HW165534   7.212   5.415   7.932
20580SOL    HW265535   7.235   5.364   8.085
20581SOL     OW65536   6.184   4.453   7.718
20581SOL    HW165537   6.208   4.522   7.650
20581SOL    HW265538   6.106   4.486   7.772
20582SOL     OW65539   6.867   4.069   8.392
20582SOL    HW165540   6.781   4.019   8.379
20582SOL    HW265541   6.929   4.015   8.448
20583SOL     OW65542   7.162   5.386   7.755
20583SOL    HW165543   7.251   5.432   7.758
20583SOL    HW265544   7.141   5.362   7.660
20584SOL     OW65545   6.393   4.329   8.913
20584SOL    HW165546   6.346   4.326   9.002
20584SOL    HW265547   6.342   4.274   8.847
20585SOL     OW65548   6.980   4.193   9.122
20585SOL    HW165549   6.960   4.236   9.210
20585SOL    HW265550   7.058   4.131   9.131
20586SOL     OW65551   6.559   4.614   9.020
20586SOL    HW165552   6.605   4.530   8.991
20586SOL    HW265553   6.503   4.648   8.945
20587SOL     OW65554   6.577   4.134   8.690
20587SOL    HW165555   6.500   4.168   8.744
20587SOL    HW265556   6.543   4.083   8.611
20588SOL     OW65557   6.627   4.425   7.877
20588SOL    HW165558   6.653   4.421   7.973
20588SOL    HW265559   6.542   4.374   7.863
20589SOL     OW65560   5.662   4.535   8.237
20589SOL    HW165561   5.761   4.523   8.246
20589SOL    HW265562   5.638   4.630   8.258
20590SOL     OW65563   6.451   4.072   7.643
20590SOL    HW165564   6.510   4.135   7.594
20590SOL    HW265565   6.470   3.978   7.614
20591SOL     OW65566   7.305   4.309   9.279
20591SOL    HW165567   7.279   4.398   9.243
20591SOL    HW265568   7.303   4.241   9.206
20592SOL     OW65569   6.948   4.868   7.993
20592SOL    HW165570   7.031   4.839   7.945
20592SOL    HW265571   6.899   4.935   7.937
20593SOL     OW65572   6.136   3.920   8.333
20593SOL    HW165573   6.131   3.915   8.433
20593SOL    HW265574   6.138   4.016   8.304
20594SOL     OW65575   6.594   5.180   7.925
20594SOL    HW165576   6.548   5.252   7.873
20594SOL    HW265577   6.590   5.200   8.023
20595SOL     OW65578   5.937   5.525   8.301
20595SOL    HW165579   5.987   5.439   8.307
20595SOL    HW265580   6.002   5.602   8.298
20596SOL     OW65581   7.381   4.790   8.321
20596SOL    HW165582   7.319   4.775   8.245
20596SOL    HW265583   7.329   4.801   8.406
20597SOL     OW65584   6.813   5.274   8.954
20597SOL    HW165585   6.819   5.197   9.018
20597SOL    HW265586   6.761   5.248   8.874
20598SOL     OW65587   5.907   4.667   7.690
20598SOL    HW165588   5.989   4.706   7.648
20598SOL    HW265589   5.880   4.585   7.641
20599SOL     OW65590   7.044   4.459   8.176
20599SOL    HW165591   7.039   4.394   8.251
20599SOL    HW265592   7.124   4.518   8.189
20600SOL     OW65593   6.047   4.990   9.175
20600SOL    HW165594   5.997   4.991   9.089
20600SOL    HW265595   5.984   4.972   9.251
20601SOL     OW65596   6.697   5.500   7.685
20601SOL    HW165597   6.637   5.438   7.735
20601SOL    HW265598   6.728   5.456   7.600
20602SOL     OW65599   5.788   4.009   8.946
20602SOL    HW165600   5.708   4.069   8.933
20602SOL    HW265601   5.778   3.960   9.032
20603SOL     OW65602   7.218   5.101   7.529
20603SOL    HW165603   7.186   5.195   7.519
20603SOL    HW265604   7.142   5.038   7.517
20604SOL     OW65605   6.050   5.467   7.771
20604SOL    HW165606   6.083   5.506   7.857
20604SOL    HW265607   6.126   5.460   7.706
20605SOL     OW65608   6.986   3.831   7.874
20605SOL    HW165609   6.962   3.794   7.784
20605SOL    HW265610   7.085   3.847   7.878
20606SOL     OW65611   5.835   5.509   8.689
20606SOL    HW165612   5.892   5.444   8.739
20606SOL    HW265613   5.819   5.476   8.596
20607SOL     OW65614   6.526   5.422   8.352
20607SOL    HW165615   6.606   5.365   8.373
20607SOL    HW265616   6.477   5.382   8.275
20608SOL     OW65617   5.968   4.424   7.928
20608SOL    HW165618   6.013   4.334   7.925
20608SOL    HW265619   5.874   4.413   7.961
20609SOL     OW65620   7.133   3.946   9.177
20609SOL    HW165621   7.128   3.983   9.269
20609SOL    HW265622   7.061   3.877   9.165
20610SOL     OW65623   6.200   3.846   7.565
20610SOL    HW165624   6.298   3.824   7.572
20610SOL    HW265625   6.169   3.829   7.472
20611SOL     OW65626   6.367   3.988   9.197
20611SOL    HW165627   6.434   3.927   9.240
20611SOL    HW265628   6.294   4.007   9.262
20612SOL     OW65629   6.474   5.238   8.643
20612SOL    HW165630   6.451   5.213   8.549
20612SOL    HW265631   6.535   5.169   8.682
20613SOL     OW65632   6.937   4.314   8.881
20613SOL    HW165633   6.965   4.271   8.966
20613SOL    HW265634   6.962   4.410   8.882
20614SOL     OW65635   6.389   5.126   8.372
20614SOL    HW165636   6.479   5.140   8.330
20614SOL    HW265637   6.318   5.128   8.301
20615SOL     OW65638   6.508   4.227   8.347
20615SOL    HW165639   6.483   4.218   8.251
20615SOL    HW265640   6.556   4.145   8.378
20616SOL     OW65641   6.125   3.788   7.960
20616SOL    HW165642   6.044   3.789   8.018
20616SOL    HW265643   6.128   3.871   7.905
20617SOL     OW65644   7.020   4.912   7.489
20617SOL    HW165645   7.052   4.836   7.546
20617SOL    HW265646   6.928   4.939   7.519
20618SOL     OW65647   5.883   3.759   7.619
20618SOL    HW165648   5.932   3.843   7.598
20618SOL    HW265649   5.945   3.694   7.664
20619SOL     OW65650   6.521   3.960   7.928
20619SOL    HW165651   6.473   4.001   7.850
20619SOL    HW265652   6.620   3.958   7.909
20620SOL     OW65653   6.662   4.407   8.912
20620SOL    HW165654   6.582   4.346   8.915
20620SOL    HW265655   6.743   4.354   8.888
20621SOL     OW65656   6.813   5.294   8.241
20621SOL    HW165657   6.834   5.368   8.176
20621SOL    HW265658   6.881   5.294   8.314
20622SOL     OW65659   6.045   4.876   8.189
20622SOL    HW165660   5.974   4.849   8.254
20622SOL    HW265661   6.019   4.848   8.096
20623SOL     OW65662   6.857   5.521   8.039
20623SOL    HW165663   6.901   5.585   7.975
20623SOL    HW265664   6.807   5.573   8.109
20624SOL     OW65665   6.618   4.273   7.464
20624SOL    HW165666   6.577   4.355   7.425
20624SOL    HW265667   6.682   4.299   7.537
20625SOL     OW65668   5.664   4.280   8.834
20625SOL    HW165669   5.756   4.279   8.793
20625SOL    HW265670   5.658   4.354   8.901
20626SOL     OW65671   6.147   3.946   8.595
20626SOL    HW165672   6.185   3.862   8.632
20626SOL    HW265673   6.059   3.965   8.639
20627SOL     OW65674   6.452   4.178   8.090
20627SOL    HW165675   6.420   4.250   8.028
20627SOL    HW265676   6.476   4.097   8.037
20628SOL     OW65677   6.603   3.763   8.201
20628SOL    HW165678   6.531   3.768   8.132
20628SOL    HW265679   6.579   3.694   8.270
20629SOL     OW65680   7.015   4.897   8.315
20629SOL    HW165681   6.960   4.813   8.308
20629SOL    HW265682   7.041   4.926   8.223
20630SOL     OW65683   7.052   4.314   8.440
20630SOL    HW165684   7.022   4.219   8.447
20630SOL    HW265685   7.125   4.330   8.506
20631SOL     OW65686   7.443   4.557   7.825
20631SOL    HW165687   7.485   4.493   7.889
20631SOL    HW265688   7.405   4.506   7.747
20632SOL     OW65689   6.074   5.109   7.622
20632SOL    HW165690   5.987   5.094   7.669
20632SOL    HW265691   6.057   5.135   7.527
20633SOL     OW65692   7.250   5.004   8.105
20633SOL    HW165693   7.349   5.012   8.119
20633SOL    HW265694   7.205   5.088   8.136
20634SOL     OW65695   6.976   4.299   7.526
20634SOL    HW165696   6.922   4.278   7.607
20634SOL    HW265697   7.067   4.258   7.535
20635SOL     OW65698   6.113   3.980   7.776
20635SOL    HW165699   6.140   3.921   7.701
20635SOL    HW265700   6.113   4.075   7.745
20636SOL     OW65701   7.340   4.947   9.036
20636SOL    HW165702   7.431   4.908   9.023
20636SOL    HW265703   7.348   5.043   9.060
20637SOL     OW65704   6.650   5.071   8.788
20637SOL    HW165705   6.570   5.048   8.843
20637SOL    HW265706   6.733   5.045   8.837
20638SOL     OW65707   7.178   5.353   9.073
20638SOL    HW165708   7.205   5.387   8.983
20638SOL    HW265709   7.257   5.315   9.119
20639SOL     OW65710   6.697   4.919   8.548
20639SOL    HW165711   6.657   4.963   8.629
20639SOL    HW265712   6.656   4.956   8.465
20640SOL     OW65713   7.224   4.823   8.527
20640SOL    HW165714   7.229   4.904   8.586
20640SOL    HW265715   7.138   4.825   8.476
20641SOL     OW65716   6.501   3.813   8.850
20641SOL    HW165717   6.526   3.793   8.755
20641SOL    HW265718   6.573   3.869   8.892
20642SOL     OW65719   6.566   4.840   9.167
20642SOL    HW165720   6.467   4.846   9.177
20642SOL    HW265721   6.589   4.760   9.111
20643SOL     OW65722   6.291   4.774   7.816
20643SOL    HW165723   6.277   4.781   7.915
20643SOL    HW265724   6.375   4.723   7.798
20644SOL     OW65725   5.996   4.537   8.699
20644SOL    HW165726   6.082   4.549   8.749
20644SOL    HW265727   5.954   4.450   8.726
20645SOL     OW65728   6.860   4.110   8.710
20645SOL    HW165729   6.881   4.184   8.774
20645SOL    HW265730   6.771   4.127   8.667
20646SOL     OW65731   5.650   5.288   8.779
20646SOL    HW165732   5.604   5.370   8.745
20646SOL    HW265733   5.748   5.307   8.788
20647SOL     OW65734   5.953   4.824   7.949
20647SOL    HW165735   5.946   4.907   7.893
20647SOL    HW265736   5.957   4.744   7.889
20648SOL     OW65737   6.152   4.261   8.313
20648SOL    HW165738   6.164   4.327   8.239
20648SOL    HW265739   6.198   4.295   8.396
20649SOL     OW65740   6.838   5.072   7.836
20649SOL    HW165741   6.888   5.149   7.876
20649SOL    HW265742   6.743   5.074   7.868
20650SOL     OW65743   6.858   5.169   8.590
20650SOL    HW165744   6.905   5.182   8.677
20650SOL    HW265745   6.792   5.095   8.599
20651SOL     OW65746   7.168   4.363   7.920
20651SOL    HW165747   7.137   4.424   7.993
20651SOL    HW265748   7.218   4.415   7.851
20652SOL     OW65749   5.940   5.234   8.777
20652SOL    HW165750   5.919   5.190   8.690
20652SOL    HW265751   6.037   5.260   8.780
20653SOL     OW65752   5.988   4.475   9.046
20653SOL    HW165753   6.056   4.530   8.999
20653SOL    HW265754   6.028   4.387   9.073
20654SOL     OW65755   7.173   4.503   9.118
20654SOL    HW165756   7.081   4.541   9.113
20654SOL    HW265757   7.233   4.550   9.053
20655SOL     OW65758   6.599   3.829   9.218
20655SOL    HW165759   6.605   3.914   9.166
20655SOL    HW265760   6.631   3.753   9.161
20656SOL     OW65761   6.090   3.774   9.188
20656SOL    HW165762   6.048   3.717   9.118
20656SOL    HW265763   6.024   3.843   9.220
20657SOL     OW65764   6.159   4.594   8.477
20657SOL    HW165765   6.203   4.683   8.468
20657SOL    HW265766   6.096   4.594   8.554
20658SOL     OW65767   6.946   4.586   8.493
20658SOL    HW165768   6.871   4.586   8.427
20658SOL    HW265769   6.983   4.494   8.502
20659SOL     OW65770   6.795   4.249   7.723
20659SOL    HW165771   6.808   4.165   7.777
20659SOL    HW265772   6.766   4.323   7.783
20660SOL     OW65773   5.893   3.937   8.679
20660SOL    HW165774   5.870   3.974   8.769
20660SOL    HW265775   5.863   3.842   8.673
20661SOL     OW65776   5.623   5.034   8.730
20661SOL    HW165777   5.676   4.985   8.798
20661SOL    HW265778   5.645   5.132   8.735
20662SOL     OW65779   6.318   4.358   8.512
20662SOL    HW165780   6.377   4.332   8.436
20662SOL    HW265781   6.290   4.454   8.501
20663SOL     OW65782   7.314   4.659   9.302
20663SOL    HW165783   7.268   4.652   9.213
20663SOL    HW265784   7.252   4.703   9.368
20664SOL     OW65785   5.893   3.787   8.066
20664SOL    HW165786   5.882   3.881   8.099
20664SOL    HW265787   5.888   3.724   8.143
20665SOL     OW65788   7.208   4.091   7.822
20665SOL    HW165789   7.210   4.015   7.886
20665SOL    HW265790   7.160   4.168   7.862
20666SOL     OW65791   6.609   4.490   8.414
20666SOL    HW165792   6.624   4.511   8.510
20666SOL    HW265793   6.579   4.395   8.405
20667SOL     OW65794   6.566   5.297   9.148
20667SOL    HW165795   6.546   5.341   9.060
20667SOL    HW265796   6.605   5.206   9.132
20668SOL     OW65797   7.445   5.242   9.053
20668SOL    HW165798   7.459   5.269   8.958
20668SOL    HW265799   7.528   5.264   9.106
20669SOL     OW65800   5.936   4.622   9.252
20669SOL    HW165801   6.012   4.666   9.300
20669SOL    HW265802   5.971   4.575   9.170
20670SOL     OW65803   7.126   3.998   7.573
20670SOL    HW165804   7.065   3.923   7.596
20670SOL    HW265805   7.148   4.050   7.656
20671SOL     OW65806   6.889   4.562   7.490
20671SOL    HW165807   6.923   4.469   7.505
20671SOL    HW265808   6.907   4.589   7.395
20672SOL     OW65809   6.654   5.057   8.297
20672SOL    HW165810   6.661   4.973   8.242
20672SOL    HW265811   6.716   5.126   8.261
20673SOL     OW65812   5.905   4.534   8.397
20673SOL    HW165813   5.998   4.570   8.402
20673SOL    HW265814   5.899   4.449   8.449
20674SOL     OW65815   5.925   4.233   8.454
20674SOL    HW165816   5.873   4.150   8.437
20674SOL    HW265817   6.002   4.238   8.390
20675SOL     OW65818   6.724   4.104   9.126
20675SOL    HW165819   6.679   4.167   9.190
20675SOL    HW265820   6.817   4.135   9.109
20676SOL     OW65821   6.746   3.931   8.925
20676SOL    HW165822   6.746   3.995   9.002
20676SOL    HW265823   6.774   3.979   8.842
20677SOL     OW65824   5.594   5.050   7.648
20677SOL    HW165825   5.501   5.071   7.617
20677SOL    HW265826   5.604   4.951   7.661
20678SOL     OW65827   5.674   5.525   8.375
20678SOL    HW165828   5.632   5.439   8.348
20678SOL    HW265829   5.768   5.528   8.341
20679SOL     OW65830   6.090   5.292   8.358
20679SOL    HW165831   6.156   5.366   8.367
20679SOL    HW265832   6.134   5.213   8.316
20680SOL     OW65833   6.588   4.520   8.686
20680SOL    HW165834   6.629   4.488   8.772
20680SOL    HW265835   6.492   4.493   8.683
20681SOL     OW65836   5.626   4.268   8.562
20681SOL    HW165837   5.711   4.235   8.521
20681SOL    HW265838   5.639   4.283   8.660
20682SOL     OW65839   5.775   4.244   9.170
20682SOL    HW165840   5.834   4.204   9.100
20682SOL    HW265841   5.717   4.315   9.129
20683SOL     OW65842   6.955   4.674   9.108
20683SOL    HW165843   6.994   4.763   9.128
20683SOL    HW265844   6.965   4.654   9.011
20684SOL     OW65845   6.401   4.296   7.773
20684SOL    HW165846   6.408   4.207   7.727
20684SOL    HW265847   6.307   4.330   7.765
20685SOL     OW65848   7.243   4.328   8.654
20685SOL    HW165849   7.205   4.259   8.716
20685SOL    HW265850   7.325   4.292   8.610
20686SOL     OW65851   5.838   5.288   9.192
20686SOL    HW165852   5.808   5.345   9.268
20686SOL    HW265853   5.831   5.191   9.218
20687SOL     OW65854   6.257   4.188   8.717
20687SOL    HW165855   6.223   4.099   8.687
20687SOL    HW265856   6.283   4.242   8.637
20688SOL     OW65857   6.516   5.402   8.913
20688SOL    HW165858   6.492   5.384   8.818
20688SOL    HW265859   6.546   5.496   8.923
20689SOL     OW65860   6.059   4.224   7.639
20689SOL    HW165861   6.120   4.304   7.643
20689SOL    HW265862   5.964   4.255   7.646
20690SOL     OW65863   5.745   4.861   8.914
20690SOL    HW165864   5.767   4.800   8.990
20690SOL    HW265865   5.755   4.812   8.828
20691SOL     OW65866   6.933   4.783   8.682
20691SOL    HW165867   6.957   4.720   8.608
20691SOL    HW265868   6.843   4.823   8.664
20692SOL     OW65869   6.888   4.579   7.757
20692SOL    HW165870   6.802   4.548   7.799
20692SOL    HW265871   6.884   4.565   7.658
20693SOL     OW65872   7.345   5.471   8.602
20693SOL    HW165873   7.406   5.501   8.529
20693SOL    HW265874   7.307   5.382   8.580
20694SOL     OW65875   6.838   5.455   8.576
20694SOL    HW165876   6.922   5.460   8.522
20694SOL    HW265877   6.815   5.359   8.594
20695SOL     OW65878   5.669   4.982   8.470
20695SOL    HW165879   5.664   4.981   8.570
20695SOL    HW265880   5.586   4.941   8.432
20696SOL     OW65881   6.274   5.386   9.164
20696SOL    HW165882   6.218   5.467   9.173
20696SOL    HW265883   6.326   5.390   9.078
20697SOL     OW65884   7.312   3.859   7.971
20697SOL    HW165885   7.385   3.842   7.904
20697SOL    HW265886   7.281   3.772   8.009
20698SOL     OW65887   6.974   5.297   7.925
20698SOL    HW165888   7.041   5.309   7.851
20698SOL    HW265889   6.934   5.386   7.948
20699SOL     OW65890   6.866   4.651   8.120
20699SOL    HW165891   6.926   4.570   8.122
20699SOL    HW265892   6.906   4.720   8.060
20700SOL     OW65893   6.416   4.997   8.870
20700SOL    HW165894   6.411   5.030   8.965
20700SOL    HW265895   6.330   5.016   8.824
20701SOL     OW65896   6.258   5.340   7.602
20701SOL    HW165897   6.267   5.350   7.503
20701SOL    HW265898   6.218   5.251   7.623
20702SOL     OW65899   7.236   5.444   8.842
20702SOL    HW165900   7.289   5.454   8.758
20702SOL    HW265901   7.209   5.534   8.876
20703SOL     OW65902   7.427   3.899   8.411
20703SOL    HW165903   7.466   3.814   8.375
20703SOL    HW265904   7.329   3.901   8.392
20704SOL     OW65905   5.849   4.050   8.168
20704SOL    HW165906   5.770   4.101   8.134
20704SOL    HW265907   5.840   4.035   8.266
20705SOL     OW65908   6.780   5.336   7.479
20705SOL    HW165909   6.786   5.243   7.516
20705SOL    HW265910   6.721   5.336   7.399
20706SOL     OW65911   6.408   4.726   8.820
20706SOL    HW165912   6.448   4.725   8.728
20706SOL    HW265913   6.418   4.818   8.860
20707SOL     OW65914   6.502   4.634   7.739
20707SOL    HW165915   6.565   4.672   7.671
20707SOL    HW265916   6.542   4.551   7.778
20708SOL     OW65917   7.090   5.331   7.492
20708SOL    HW165918   6.998   5.368   7.499
20708SOL    HW265919   7.128   5.351   7.402
20709SOL     OW65920   5.958   5.012   8.938
20709SOL    HW165921   5.945   5.105   8.904
20709SOL    HW265922   5.874   4.960   8.925
20710SOL     OW65923   7.200   5.016   8.737
20710SOL    HW165924   7.260   5.019   8.817
20710SOL    HW265925   7.125   5.080   8.750
20711SOL     OW65926   6.625   4.822   8.144
20711SOL    HW165927   6.555   4.775   8.198
20711SOL    HW265928   6.684   4.754   8.101
20712SOL     OW65929   6.600   3.960   8.419
20712SOL    HW165930   6.592   3.924   8.326
20712SOL    HW265931   6.598   3.884   8.484
20713SOL     OW65932   6.176   5.211   7.939
20713SOL    HW165933   6.218   5.153   7.869
20713SOL    HW265934   6.132   5.290   7.895
20714SOL     OW65935   7.295   4.109   8.829
20714SOL    HW165936   7.368   4.178   8.833
20714SOL    HW265937   7.323   4.034   8.770
20715SOL     OW65938   5.841   5.072   7.738
20715SOL    HW165939   5.745   5.073   7.711
20715SOL    HW265940   5.853   5.125   7.822
20716SOL     OW65941   5.691   4.737   9.174
20716SOL    HW165942   5.614   4.704   9.228
20716SOL    HW265943   5.776   4.707   9.216
20717SOL     OW65944   6.258   3.927   8.937
20717SOL    HW165945   6.348   3.911   8.897
20717SOL    HW265946   6.266   3.932   9.036
20718SOL     OW65947   5.661   4.069   7.481
20718SOL    HW165948   5.569   4.041   7.452
20718SOL    HW265949   5.692   4.146   7.425
20719SOL     OW65950   7.026   4.580   8.846
20719SOL    HW165951   6.969   4.632   8.783
20719SOL    HW265952   7.122   4.592   8.822
20720SOL     OW65953   5.658   3.890   7.766
20720SOL    HW165954   5.641   3.973   7.712
20720SOL    HW265955   5.748   3.853   7.744
20721SOL     OW65956   6.769   5.059   7.567
20721SOL    HW165957   6.670   5.048   7.569
20721SOL    HW265958   6.803   5.074   7.660
20722SOL     OW65959   6.199   4.566   8.879
20722SOL    HW165960   6.255   4.647   8.862
20722SOL    HW265961   6.258   4.486   8.882
20723SOL     OW65962   7.079   5.491   8.407
20723SOL    HW165963   7.112   5.555   8.338
20723SOL    HW265964   7.145   5.485   8.482
20724SOL     OW65965   6.302   4.289   9.156
20724SOL    HW165966   6.321   4.354   9.230
20724SOL    HW265967   6.362   4.209   9.165
20725SOL     OW65968   7.036   4.944   9.081
20725SOL    HW165969   7.027   4.934   9.180
20725SOL    HW265970   7.132   4.937   9.055
20726SOL     OW65971   5.976   5.465   9.008
20726SOL    HW165972   5.885   5.506   9.006
20726SOL    HW265973   5.969   5.371   9.040
20727SOL     OW65974   7.260   4.607   8.702
20727SOL    HW165975   7.233   4.518   8.665
20727SOL    HW265976   7.261   4.675   8.629
20728SOL     OW65977   6.811   4.049   7.897
20728SOL    HW165978   6.876   3.975   7.886
20728SOL    HW265979   6.831   4.099   7.981
20729SOL     OW65980   6.180   4.469   8.100
20729SOL    HW165981   6.230   4.554   8.081
20729SOL    HW265982   6.092   4.471   8.052
20730SOL     OW65983   7.363   4.066   9.090
20730SOL    HW165984   7.346   4.097   8.996
20730SOL    HW265985   7.279   4.029   9.128
20731SOL     OW65986   7.316   4.658   8.965
20731SOL    HW165987   7.354   4.749   8.980
20731SOL    HW265988   7.308   4.641   8.866
20732SOL     OW65989   6.445   5.098   7.464
20732SOL    HW165990   6.399   5.113   7.552
20732SOL    HW265991   6.489   5.183   7.434
20733SOL     OW65992   6.247   5.514   8.401
20733SOL    HW165993   6.201   5.602   8.388
20733SOL    HW265994   6.346   5.526   8.394
20734SOL     OW65995   6.445   4.680   8.309
20734SOL    HW165996   6.499   4.611   8.357
20734SOL    HW265997   6.413   4.749   8.375
20735SOL     OW65998   6.669   4.708   7.535
20735SOL    HW165999   6.646   4.761   7.453
20735SOL    HW266000   6.750   4.652   7.516
20736SOL     OW66001   7.447   5.293   8.299
20736SOL    HW166002   7.376   5.281   8.229
20736SOL    HW266003   7.448   5.214   8.359
20737SOL     OW66004   5.807   5.038   9.292
20737SOL    HW166005   5.742   4.965   9.271
20737SOL    HW266006   5.811   5.052   9.390
20738SOL     OW66007   5.665   4.964   8.101
20738SOL    HW166008   5.664   4.917   8.189
20738SOL    HW266009   5.747   4.936   8.050
20739SOL     OW66010   6.258   5.115   9.072
20739SOL    HW166011   6.180   5.065   9.110
20739SOL    HW266012   6.255   5.210   9.103
20740SOL     OW66013   7.410   3.916   8.675
20740SOL    HW166014   7.406   3.826   8.719
20740SOL    HW266015   7.413   3.905   8.576
20741SOL     OW66016   6.014   4.148   7.968
20741SOL    HW166017   6.044   4.076   7.906
20741SOL    HW266018   5.975   4.108   8.051
20742SOL     OW66019   7.291   5.211   8.552
20742SOL    HW166020   7.198   5.186   8.525
20742SOL    HW266021   7.317   5.161   8.634
20743SOL     OW66022   5.903   4.271   8.728
20743SOL    HW166023   5.941   4.212   8.800
20743SOL    HW266024   5.943   4.245   8.640
20744SOL     OW66025   6.398   5.310   8.135
20744SOL    HW166026   6.430   5.320   8.041
20744SOL    HW266027   6.319   5.248   8.137
20745SOL     OW66028   7.010   3.938   8.560
20745SOL    HW166029   7.062   3.873   8.615
20745SOL    HW266030   6.961   4.001   8.621
20746SOL     OW66031   6.587   3.758   8.602
20746SOL    HW166032   6.524   3.686   8.571
20746SOL    HW266033   6.680   3.722   8.602
20747SOL     OW66034   6.356   5.054   7.749
20747SOL    HW166035   6.310   4.967   7.766
20747SOL    HW266036   6.447   5.051   7.790
20748SOL     OW66037   6.204   5.291   8.732
20748SOL    HW166038   6.199   5.373   8.789
20748SOL    HW266039   6.293   5.288   8.687
20749SOL     OW66040   6.938   3.776   7.616
20749SOL    HW166041   6.973   3.735   7.532
20749SOL    HW266042   6.848   3.738   7.636
20750SOL     OW66043   6.886   4.177   8.139
20750SOL    HW166044   6.827   4.257   8.143
20750SOL    HW266045   6.901   4.142   8.232
20751SOL     OW66046   7.179   3.945   8.330
20751SOL    HW166047   7.095   3.944   8.384
20751SOL    HW266048   7.181   4.028   8.274
20752SOL     OW66049   5.625   4.801   7.748
20752SOL    HW166050   5.724   4.790   7.739
20752SOL    HW266051   5.585   4.715   7.780
20753SOL     OW66052   6.461   5.370   7.785
20753SOL    HW166053   6.384   5.335   7.731
20753SOL    HW266054   6.429   5.441   7.847
20754SOL     OW66055   5.816   4.352   9.423
20754SOL    HW166056   5.723   4.350   9.460
20754SOL    HW266057   5.817   4.313   9.331
20755SOL     OW66058   7.341   4.331   9.541
20755SOL    HW166059   7.329   4.318   9.442
20755SOL    HW266060   7.311   4.250   9.590
20756SOL     OW66061   5.817   5.437   9.793
20756SOL    HW166062   5.851   5.514   9.847
20756SOL    HW266063   5.861   5.437   9.703
20757SOL     OW66064   6.192   4.688   9.433
20757SOL    HW166065   6.199   4.772   9.379
20757SOL    HW266066   6.238   4.701   9.521
20758SOL     OW66067   5.708   4.367   9.873
20758SOL    HW166068   5.663   4.279   9.890
20758SOL    HW266069   5.707   4.421   9.957
20759SOL     OW66070   7.428   5.491   9.669
20759SOL    HW166071   7.482   5.462   9.749
20759SOL    HW266072   7.458   5.581   9.640
20760SOL     OW66073   7.275   4.646   9.922
20760SOL    HW166074   7.370   4.617   9.930
20760SOL    HW266075   7.267   4.711   9.847
20761SOL     OW66076   7.227   4.832   9.742
20761SOL    HW166077   7.313   4.834   9.690
20761SOL    HW266078   7.241   4.879   9.830
20762SOL     OW66079   6.199   5.089  10.036
20762SOL    HW166080   6.150   5.002  10.045
20762SOL    HW266081   6.176   5.132   9.949
20763SOL     OW66082   6.395   3.728   9.812
20763SOL    HW166083   6.435   3.819   9.803
20763SOL    HW266084   6.295   3.736   9.818
20764SOL     OW66085   7.111   4.723   9.500
20764SOL    HW166086   7.048   4.647   9.513
20764SOL    HW266087   7.159   4.741   9.586
20765SOL     OW66088   6.184   4.453   9.580
20765SOL    HW166089   6.208   4.522   9.512
20765SOL    HW266090   6.106   4.486   9.634
20766SOL     OW66091   7.162   5.386   9.617
20766SOL    HW166092   7.251   5.432   9.620
20766SOL    HW266093   7.141   5.362   9.522
20767SOL     OW66094   6.627   4.425   9.739
20767SOL    HW166095   6.653   4.421   9.835
20767SOL    HW266096   6.542   4.374   9.725
20768SOL     OW66097   5.662   4.535  10.099
20768SOL    HW166098   5.761   4.523  10.108
20768SOL    HW266099   5.638   4.630  10.120
20769SOL     OW66100   6.451   4.072   9.505
20769SOL    HW166101   6.510   4.135   9.456
20769SOL    HW266102   6.470   3.978   9.476
20770SOL     OW66103   6.948   4.868   9.855
20770SOL    HW166104   7.031   4.839   9.807
20770SOL    HW266105   6.899   4.935   9.799
20771SOL     OW66106   6.594   5.180   9.787
20771SOL    HW166107   6.548   5.252   9.735
20771SOL    HW266108   6.590   5.200   9.885
20772SOL     OW66109   5.937   5.525  10.163
20772SOL    HW166110   5.987   5.439  10.169
20772SOL    HW266111   6.002   5.602  10.160
20773SOL     OW66112   5.907   4.667   9.552
20773SOL    HW166113   5.989   4.706   9.510
20773SOL    HW266114   5.880   4.585   9.503
20774SOL     OW66115   6.697   5.500   9.547
20774SOL    HW166116   6.637   5.438   9.597
20774SOL    HW266117   6.728   5.456   9.462
20775SOL     OW66118   7.218   5.101   9.391
20775SOL    HW166119   7.186   5.195   9.381
20775SOL    HW266120   7.142   5.038   9.379
20776SOL     OW66121   6.050   5.467   9.633
20776SOL    HW166122   6.083   5.506   9.719
20776SOL    HW266123   6.126   5.460   9.568
20777SOL     OW66124   6.986   3.831   9.736
20777SOL    HW166125   6.962   3.794   9.646
20777SOL    HW266126   7.085   3.847   9.740
20778SOL     OW66127   5.968   4.424   9.790
20778SOL    HW166128   6.013   4.334   9.787
20778SOL    HW266129   5.874   4.413   9.823
20779SOL     OW66130   6.200   3.846   9.427
20779SOL    HW166131   6.298   3.824   9.434
20779SOL    HW266132   6.169   3.829   9.334
20780SOL     OW66133   6.125   3.788   9.822
20780SOL    HW166134   6.044   3.789   9.880
20780SOL    HW266135   6.128   3.871   9.767
20781SOL     OW66136   7.020   4.912   9.351
20781SOL    HW166137   7.052   4.836   9.408
20781SOL    HW266138   6.928   4.939   9.381
20782SOL     OW66139   5.883   3.759   9.481
20782SOL    HW166140   5.932   3.843   9.460
20782SOL    HW266141   5.945   3.694   9.526
20783SOL     OW66142   6.521   3.960   9.790
20783SOL    HW166143   6.473   4.001   9.712
20783SOL    HW266144   6.620   3.958   9.771
20784SOL     OW66145   6.045   4.876  10.051
20784SOL    HW166146   5.974   4.849  10.116
20784SOL    HW266147   6.019   4.848   9.958
20785SOL     OW66148   6.857   5.521   9.901
20785SOL    HW166149   6.901   5.585   9.837
20785SOL    HW266150   6.807   5.573   9.971
20786SOL     OW66151   6.618   4.273   9.326
20786SOL    HW166152   6.577   4.355   9.287
20786SOL    HW266153   6.682   4.299   9.399
20787SOL     OW66154   6.452   4.178   9.952
20787SOL    HW166155   6.420   4.250   9.890
20787SOL    HW266156   6.476   4.097   9.899
20788SOL     OW66157   7.443   4.557   9.687
20788SOL    HW166158   7.485   4.493   9.751
20788SOL    HW266159   7.405   4.506   9.609
20789SOL     OW66160   6.074   5.109   9.484
20789SOL    HW166161   5.987   5.094   9.531
20789SOL    HW266162   6.057   5.135   9.389
20790SOL     OW66163   6.976   4.299   9.388
20790SOL    HW166164   6.922   4.278   9.469
20790SOL    HW266165   7.067   4.258   9.397
20791SOL     OW66166   6.113   3.980   9.638
20791SOL    HW166167   6.140   3.921   9.563
20791SOL    HW266168   6.113   4.075   9.607
20792SOL     OW66169   6.291   4.774   9.678
20792SOL    HW166170   6.277   4.781   9.777
20792SOL    HW266171   6.375   4.723   9.660
20793SOL     OW66172   6.838   5.072   9.698
20793SOL    HW166173   6.888   5.149   9.738
20793SOL    HW266174   6.743   5.074   9.730
20794SOL     OW66175   7.168   4.363   9.782
20794SOL    HW166176   7.137   4.424   9.855
20794SOL    HW266177   7.218   4.415   9.713
20795SOL     OW66178   6.795   4.249   9.585
20795SOL    HW166179   6.808   4.165   9.639
20795SOL    HW266180   6.766   4.323   9.645
20796SOL     OW66181   5.893   3.787   9.928
20796SOL    HW166182   5.882   3.881   9.961
20796SOL    HW266183   5.888   3.724  10.005
20797SOL     OW66184   7.208   4.091   9.684
20797SOL    HW166185   7.210   4.015   9.748
20797SOL    HW266186   7.160   4.168   9.724
20798SOL     OW66187   7.126   3.998   9.435
20798SOL    HW166188   7.065   3.923   9.458
20798SOL    HW266189   7.148   4.050   9.518
20799SOL     OW66190   6.889   4.562   9.352
20799SOL    HW166191   6.923   4.469   9.367
20799SOL    HW266192   6.907   4.589   9.257
20800SOL     OW66193   6.401   4.296   9.635
20800SOL    HW166194   6.408   4.207   9.589
20800SOL    HW266195   6.307   4.330   9.627
20801SOL     OW66196   6.059   4.224   9.501
20801SOL    HW166197   6.120   4.304   9.505
20801SOL    HW266198   5.964   4.255   9.508
20802SOL     OW66199   6.888   4.579   9.619
20802SOL    HW166200   6.802   4.548   9.661
20802SOL    HW266201   6.884   4.565   9.520
20803SOL     OW66202   7.312   3.859   9.833
20803SOL    HW166203   7.385   3.842   9.766
20803SOL    HW266204   7.281   3.772   9.871
20804SOL     OW66205   6.974   5.297   9.787
20804SOL    HW166206   7.041   5.309   9.713
20804SOL    HW266207   6.934   5.386   9.810
20805SOL     OW66208   6.258   5.340   9.464
20805SOL    HW166209   6.267   5.350   9.365
20805SOL    HW266210   6.218   5.251   9.485
20806SOL     OW66211   6.780   5.336   9.341
20806SOL    HW166212   6.786   5.243   9.378
20806SOL    HW266213   6.721   5.336   9.261
20807SOL     OW66214   6.502   4.634   9.601
20807SOL    HW166215   6.565   4.672   9.533
20807SOL    HW266216   6.542   4.551   9.640
20808SOL     OW66217   7.090   5.331   9.354
20808SOL    HW166218   6.998   5.368   9.361
20808SOL    HW266219   7.128   5.351   9.264
20809SOL     OW66220   6.176   5.211   9.801
20809SOL    HW166221   6.218   5.153   9.731
20809SOL    HW266222   6.132   5.290   9.757
20810SOL     OW66223   5.661   4.069   9.343
20810SOL    HW166224   5.569   4.041   9.314
20810SOL    HW266225   5.692   4.146   9.287
20811SOL     OW66226   5.658   3.890   9.628
20811SOL    HW166227   5.641   3.973   9.574
20811SOL    HW266228   5.748   3.853   9.606
20812SOL     OW66229   6.769   5.059   9.429
20812SOL    HW166230   6.670   5.048   9.431
20812SOL    HW266231   6.803   5.074   9.522
20813SOL     OW66232   6.811   4.049   9.759
20813SOL    HW166233   6.876   3.975   9.748
20813SOL    HW266234   6.831   4.099   9.843
20814SOL     OW66235   6.180   4.469   9.962
20814SOL    HW166236   6.230   4.554   9.943
20814SOL    HW266237   6.092   4.471   9.914
20815SOL     OW66238   6.445   5.098   9.326
20815SOL    HW166239   6.399   5.113   9.414
20815SOL    HW266240   6.489   5.183   9.296
20816SOL     OW66241   6.669   4.708   9.397
20816SOL    HW166242   6.646   4.761   9.315
20816SOL    HW266243   6.750   4.652   9.378
20817SOL     OW66244   6.014   4.148   9.830
20817SOL    HW166245   6.044   4.076   9.768
20817SOL    HW266246   5.975   4.108   9.913
20818SOL     OW66247   6.356   5.054   9.611
20818SOL    HW166248   6.310   4.967   9.628
20818SOL    HW266249   6.447   5.051   9.652
20819SOL     OW66250   6.938   3.776   9.478
20819SOL    HW166251   6.973   3.735   9.394
20819SOL    HW266252   6.848   3.738   9.498
20820SOL     OW66253   6.461   5.370   9.647
20820SOL    HW166254   6.384   5.335   9.593
20820SOL    HW266255   6.429   5.441   9.709
20821SOL     OW66256   5.816   6.214   0.113
20821SOL    HW166257   5.723   6.212   0.150
20821SOL    HW266258   5.817   6.175   0.021
20822SOL     OW66259   5.811   5.861   0.996
20822SOL    HW166260   5.846   5.844   1.088
20822SOL    HW266261   5.723   5.816   0.984
20823SOL     OW66262   5.605   5.954   0.647
20823SOL    HW166263   5.523   5.997   0.686
20823SOL    HW266264   5.577   5.881   0.584
20824SOL     OW66265   6.155   6.861   1.165
20824SOL    HW166266   6.062   6.854   1.128
20824SOL    HW266267   6.166   6.950   1.209
20825SOL     OW66268   7.141   7.097   0.703
20825SOL    HW166269   7.084   7.081   0.784
20825SOL    HW266270   7.082   7.107   0.623
20826SOL     OW66271   6.721   6.289   0.717
20826SOL    HW166272   6.778   6.367   0.692
20826SOL    HW266273   6.661   6.315   0.793
20827SOL     OW66274   7.341   6.193   0.231
20827SOL    HW166275   7.329   6.180   0.132
20827SOL    HW266276   7.311   6.112   0.280
20828SOL     OW66277   6.354   6.730   1.023
20828SOL    HW166278   6.276   6.747   1.083
20828SOL    HW266279   6.388   6.817   0.987
20829SOL     OW66280   6.436   6.384   1.823
20829SOL    HW166281   6.432   6.460   1.888
20829SOL    HW266282   6.458   6.420   1.732
20830SOL     OW66283   6.271   6.598   0.665
20830SOL    HW166284   6.340   6.582   0.735
20830SOL    HW266285   6.198   6.655   0.703
20831SOL     OW66286   6.272   6.747   1.803
20831SOL    HW166287   6.332   6.826   1.817
20831SOL    HW266288   6.186   6.778   1.762
20832SOL     OW66289   5.921   7.021   1.061
20832SOL    HW166290   5.843   6.990   1.008
20832SOL    HW266291   5.979   7.079   1.004
20833SOL     OW66292   7.046   7.091   1.339
20833SOL    HW166293   7.070   7.185   1.365
20833SOL    HW266294   7.030   7.037   1.421
20834SOL     OW66295   6.024   5.978   1.499
20834SOL    HW166296   6.106   5.922   1.508
20834SOL    HW266297   5.943   5.920   1.503
20835SOL     OW66298   7.189   6.033   0.737
20835SOL    HW166299   7.115   6.079   0.687
20835SOL    HW266300   7.240   6.101   0.790
20836SOL     OW66301   5.817   7.299   0.483
20836SOL    HW166302   5.851   7.376   0.537
20836SOL    HW266303   5.861   7.299   0.393
20837SOL     OW66304   6.713   6.927   1.690
20837SOL    HW166305   6.760   6.927   1.778
20837SOL    HW266306   6.665   6.840   1.679
20838SOL     OW66307   5.816   7.020   0.538
20838SOL    HW166308   5.790   7.116   0.538
20838SOL    HW266309   5.745   6.966   0.583
20839SOL     OW66310   5.826   6.677   0.886
20839SOL    HW166311   5.840   6.593   0.938
20839SOL    HW266312   5.771   6.741   0.941
20840SOL     OW66313   6.206   7.372   1.439
20840SOL    HW166314   6.114   7.355   1.474
20840SOL    HW266315   6.234   7.464   1.465
20841SOL     OW66316   6.192   6.550   0.123
20841SOL    HW166317   6.199   6.634   0.069
20841SOL    HW266318   6.238   6.563   0.211
20842SOL     OW66319   7.180   5.700   1.480
20842SOL    HW166320   7.162   5.767   1.408
20842SOL    HW266321   7.177   5.746   1.569
20843SOL     OW66322   5.708   6.229   0.563
20843SOL    HW166323   5.663   6.141   0.580
20843SOL    HW266324   5.707   6.283   0.647
20844SOL     OW66325   7.428   7.353   0.359
20844SOL    HW166326   7.482   7.324   0.439
20844SOL    HW266327   7.458   7.443   0.330
20845SOL     OW66328   5.613   7.182   0.117
20845SOL    HW166329   5.594   7.086   0.138
20845SOL    HW266330   5.580   7.240   0.192
20846SOL     OW66331   7.227   6.694   0.432
20846SOL    HW166332   7.313   6.696   0.380
20846SOL    HW266333   7.241   6.741   0.520
20847SOL     OW66334   5.699   6.323   1.597
20847SOL    HW166335   5.787   6.310   1.642
20847SOL    HW266336   5.686   6.420   1.575
20848SOL     OW66337   6.199   6.951   0.726
20848SOL    HW166338   6.150   6.864   0.735
20848SOL    HW266339   6.176   6.994   0.639
20849SOL     OW66340   6.879   6.814   1.423
20849SOL    HW166341   6.916   6.741   1.365
20849SOL    HW266342   6.931   6.819   1.508
20850SOL     OW66343   5.783   6.562   1.264
20850SOL    HW166344   5.872   6.517   1.250
20850SOL    HW266345   5.710   6.497   1.245
20851SOL     OW66346   7.111   6.585   0.190
20851SOL    HW166347   7.048   6.509   0.203
20851SOL    HW266348   7.159   6.603   0.276
20852SOL     OW66349   6.773   7.378   1.616
20852SOL    HW166350   6.797   7.438   1.540
20852SOL    HW266351   6.780   7.283   1.586
20853SOL     OW66352   5.903   5.837   1.801
20853SOL    HW166353   5.974   5.908   1.807
20853SOL    HW266354   5.815   5.876   1.829
20854SOL     OW66355   7.052   7.003   0.953
20854SOL    HW166356   6.993   7.009   1.033
20854SOL    HW266357   7.037   6.915   0.907
20855SOL     OW66358   7.253   7.300   0.572
20855SOL    HW166359   7.212   7.277   0.484
20855SOL    HW266360   7.235   7.226   0.637
20856SOL     OW66361   6.184   6.315   0.270
20856SOL    HW166362   6.208   6.384   0.202
20856SOL    HW266363   6.106   6.348   0.324
20857SOL     OW66364   6.867   5.931   0.944
20857SOL    HW166365   6.781   5.881   0.931
20857SOL    HW266366   6.929   5.877   1.000
20858SOL     OW66367   7.162   7.248   0.307
20858SOL    HW166368   7.251   7.294   0.310
20858SOL    HW266369   7.141   7.224   0.212
20859SOL     OW66370   6.393   6.191   1.465
20859SOL    HW166371   6.346   6.188   1.554
20859SOL    HW266372   6.342   6.136   1.399
20860SOL     OW66373   6.980   6.055   1.674
20860SOL    HW166374   6.960   6.098   1.762
20860SOL    HW266375   7.058   5.993   1.683
20861SOL     OW66376   6.559   6.476   1.572
20861SOL    HW166377   6.605   6.392   1.543
20861SOL    HW266378   6.503   6.510   1.497
20862SOL     OW66379   6.577   5.996   1.242
20862SOL    HW166380   6.500   6.030   1.296
20862SOL    HW266381   6.543   5.945   1.163
20863SOL     OW66382   6.627   6.287   0.429
20863SOL    HW166383   6.653   6.283   0.525
20863SOL    HW266384   6.542   6.236   0.415
20864SOL     OW66385   5.662   6.397   0.789
20864SOL    HW166386   5.761   6.385   0.798
20864SOL    HW266387   5.638   6.492   0.810
20865SOL     OW66388   5.716   7.407   1.571
20865SOL    HW166389   5.706   7.392   1.670
20865SOL    HW266390   5.630   7.443   1.535
20866SOL     OW66391   6.451   5.934   0.195
20866SOL    HW166392   6.510   5.997   0.146
20866SOL    HW266393   6.470   5.840   0.166
20867SOL     OW66394   7.305   6.171   1.831
20867SOL    HW166395   7.279   6.260   1.795
20867SOL    HW266396   7.303   6.103   1.758
20868SOL     OW66397   6.948   6.730   0.545
20868SOL    HW166398   7.031   6.701   0.497
20868SOL    HW266399   6.899   6.797   0.489
20869SOL     OW66400   6.136   5.782   0.885
20869SOL    HW166401   6.131   5.777   0.985
20869SOL    HW266402   6.138   5.878   0.856
20870SOL     OW66403   5.937   7.387   0.853
20870SOL    HW166404   5.987   7.301   0.859
20870SOL    HW266405   6.002   7.464   0.850
20871SOL     OW66406   6.813   7.136   1.506
20871SOL    HW166407   6.819   7.059   1.570
20871SOL    HW266408   6.761   7.110   1.426
20872SOL     OW66409   5.907   6.529   0.242
20872SOL    HW166410   5.989   6.568   0.200
20872SOL    HW266411   5.880   6.447   0.193
20873SOL     OW66412   7.044   6.321   0.728
20873SOL    HW166413   7.039   6.256   0.803
20873SOL    HW266414   7.124   6.380   0.741
20874SOL     OW66415   6.047   6.852   1.727
20874SOL    HW166416   5.997   6.853   1.641
20874SOL    HW266417   5.984   6.834   1.803
20875SOL     OW66418   5.788   5.871   1.498
20875SOL    HW166419   5.708   5.931   1.485
20875SOL    HW266420   5.778   5.822   1.584
20876SOL     OW66421   7.218   6.963   0.081
20876SOL    HW166422   7.186   7.057   0.071
20876SOL    HW266423   7.142   6.900   0.069
20877SOL     OW66424   6.050   7.329   0.323
20877SOL    HW166425   6.083   7.368   0.409
20877SOL    HW266426   6.126   7.322   0.258
20878SOL     OW66427   6.986   5.693   0.426
20878SOL    HW166428   6.962   5.656   0.336
20878SOL    HW266429   7.085   5.709   0.430
20879SOL     OW66430   5.835   7.371   1.241
20879SOL    HW166431   5.892   7.306   1.291
20879SOL    HW266432   5.819   7.338   1.148
20880SOL     OW66433   6.526   7.284   0.904
20880SOL    HW166434   6.606   7.227   0.925
20880SOL    HW266435   6.477   7.244   0.827
20881SOL     OW66436   5.968   6.286   0.480
20881SOL    HW166437   6.013   6.196   0.477
20881SOL    HW266438   5.874   6.275   0.513
20882SOL     OW66439   7.133   5.808   1.729
20882SOL    HW166440   7.128   5.845   1.821
20882SOL    HW266441   7.061   5.739   1.717
20883SOL     OW66442   6.200   5.708   0.117
20883SOL    HW166443   6.298   5.686   0.124
20883SOL    HW266444   6.169   5.691   0.024
20884SOL     OW66445   6.367   5.850   1.749
20884SOL    HW166446   6.434   5.789   1.792
20884SOL    HW266447   6.294   5.869   1.814
20885SOL     OW66448   6.474   7.100   1.195
20885SOL    HW166449   6.451   7.075   1.101
20885SOL    HW266450   6.535   7.031   1.234
20886SOL     OW66451   6.937   6.176   1.433
20886SOL    HW166452   6.965   6.133   1.518
20886SOL    HW266453   6.962   6.272   1.434
20887SOL     OW66454   6.389   6.988   0.924
20887SOL    HW166455   6.479   7.002   0.882
20887SOL    HW266456   6.318   6.990   0.853
20888SOL     OW66457   6.508   6.089   0.899
20888SOL    HW166458   6.483   6.080   0.803
20888SOL    HW266459   6.556   6.007   0.930
20889SOL     OW66460   6.125   5.650   0.512
20889SOL    HW166461   6.044   5.651   0.570
20889SOL    HW266462   6.128   5.733   0.457
20890SOL     OW66463   7.020   6.774   0.041
20890SOL    HW166464   7.052   6.698   0.098
20890SOL    HW266465   6.928   6.801   0.071
20891SOL     OW66466   6.521   5.822   0.480
20891SOL    HW166467   6.473   5.863   0.402
20891SOL    HW266468   6.620   5.820   0.461
20892SOL     OW66469   6.662   6.269   1.464
20892SOL    HW166470   6.582   6.208   1.467
20892SOL    HW266471   6.743   6.216   1.440
20893SOL     OW66472   6.813   7.156   0.793
20893SOL    HW166473   6.834   7.230   0.728
20893SOL    HW266474   6.881   7.156   0.866
20894SOL     OW66475   6.045   6.738   0.741
20894SOL    HW166476   5.974   6.711   0.806
20894SOL    HW266477   6.019   6.710   0.648
20895SOL     OW66478   6.857   7.383   0.591
20895SOL    HW166479   6.901   7.447   0.527
20895SOL    HW266480   6.807   7.435   0.661
20896SOL     OW66481   6.618   6.135   0.016
20896SOL    HW166482   6.577   6.217  -0.023
20896SOL    HW266483   6.682   6.161   0.089
20897SOL     OW66484   5.664   6.142   1.386
20897SOL    HW166485   5.756   6.141   1.345
20897SOL    HW266486   5.658   6.216   1.453
20898SOL     OW66487   6.147   5.808   1.147
20898SOL    HW166488   6.185   5.724   1.184
20898SOL    HW266489   6.059   5.827   1.191
20899SOL     OW66490   6.452   6.040   0.642
20899SOL    HW166491   6.420   6.112   0.580
20899SOL    HW266492   6.476   5.959   0.589
20900SOL     OW66493   6.603   5.625   0.753
20900SOL    HW166494   6.531   5.630   0.684
20900SOL    HW266495   6.579   5.556   0.822
20901SOL     OW66496   7.015   6.759   0.867
20901SOL    HW166497   6.960   6.675   0.860
20901SOL    HW266498   7.041   6.788   0.775
20902SOL     OW66499   7.052   6.176   0.992
20902SOL    HW166500   7.022   6.081   0.999
20902SOL    HW266501   7.125   6.192   1.058
20903SOL     OW66502   7.443   6.419   0.377
20903SOL    HW166503   7.485   6.355   0.441
20903SOL    HW266504   7.405   6.368   0.299
20904SOL     OW66505   6.074   6.971   0.174
20904SOL    HW166506   5.987   6.956   0.221
20904SOL    HW266507   6.057   6.997   0.079
20905SOL     OW66508   7.250   6.866   0.657
20905SOL    HW166509   7.349   6.874   0.671
20905SOL    HW266510   7.205   6.950   0.688
20906SOL     OW66511   6.976   6.161   0.078
20906SOL    HW166512   6.922   6.140   0.159
20906SOL    HW266513   7.067   6.120   0.087
20907SOL     OW66514   6.113   5.842   0.328
20907SOL    HW166515   6.140   5.783   0.253
20907SOL    HW266516   6.113   5.937   0.297
20908SOL     OW66517   7.340   6.809   1.588
20908SOL    HW166518   7.431   6.770   1.575
20908SOL    HW266519   7.348   6.905   1.612
20909SOL     OW66520   6.650   6.933   1.340
20909SOL    HW166521   6.570   6.910   1.395
20909SOL    HW266522   6.733   6.907   1.389
20910SOL     OW66523   7.178   7.215   1.625
20910SOL    HW166524   7.205   7.249   1.535
20910SOL    HW266525   7.257   7.177   1.671
20911SOL     OW66526   6.697   6.781   1.100
20911SOL    HW166527   6.657   6.825   1.181
20911SOL    HW266528   6.656   6.818   1.017
20912SOL     OW66529   7.224   6.685   1.079
20912SOL    HW166530   7.229   6.766   1.138
20912SOL    HW266531   7.138   6.687   1.028
20913SOL     OW66532   6.501   5.675   1.402
20913SOL    HW166533   6.526   5.655   1.307
20913SOL    HW266534   6.573   5.731   1.444
20914SOL     OW66535   6.566   6.702   1.719
20914SOL    HW166536   6.467   6.708   1.729
20914SOL    HW266537   6.589   6.622   1.663
20915SOL     OW66538   6.291   6.636   0.368
20915SOL    HW166539   6.277   6.643   0.467
20915SOL    HW266540   6.375   6.585   0.350
20916SOL     OW66541   5.996   6.399   1.251
20916SOL    HW166542   6.082   6.411   1.301
20916SOL    HW266543   5.954   6.312   1.278
20917SOL     OW66544   6.860   5.972   1.262
20917SOL    HW166545   6.881   6.046   1.326
20917SOL    HW266546   6.771   5.989   1.219
20918SOL     OW66547   5.650   7.150   1.331
20918SOL    HW166548   5.604   7.232   1.297
20918SOL    HW266549   5.748   7.169   1.340
20919SOL     OW66550   5.953   6.686   0.501
20919SOL    HW166551   5.946   6.769   0.445
20919SOL    HW266552   5.957   6.606   0.441
20920SOL     OW66553   6.152   6.123   0.865
20920SOL    HW166554   6.164   6.189   0.791
20920SOL    HW266555   6.198   6.157   0.948
20921SOL     OW66556   6.838   6.934   0.388
20921SOL    HW166557   6.888   7.011   0.428
20921SOL    HW266558   6.743   6.936   0.420
20922SOL     OW66559   6.858   7.031   1.142
20922SOL    HW166560   6.905   7.044   1.229
20922SOL    HW266561   6.792   6.957   1.151
20923SOL     OW66562   7.168   6.225   0.472
20923SOL    HW166563   7.137   6.286   0.545
20923SOL    HW266564   7.218   6.277   0.403
20924SOL     OW66565   5.940   7.096   1.329
20924SOL    HW166566   5.919   7.052   1.242
20924SOL    HW266567   6.037   7.122   1.332
20925SOL     OW66568   5.988   6.337   1.598
20925SOL    HW166569   6.056   6.392   1.551
20925SOL    HW266570   6.028   6.249   1.625
20926SOL     OW66571   7.173   6.365   1.670
20926SOL    HW166572   7.081   6.403   1.665
20926SOL    HW266573   7.233   6.412   1.605
20927SOL     OW66574   6.599   5.691   1.770
20927SOL    HW166575   6.605   5.776   1.718
20927SOL    HW266576   6.631   5.615   1.713
20928SOL     OW66577   6.090   5.636   1.740
20928SOL    HW166578   6.048   5.579   1.670
20928SOL    HW266579   6.024   5.705   1.772
20929SOL     OW66580   6.159   6.456   1.029
20929SOL    HW166581   6.203   6.545   1.020
20929SOL    HW266582   6.096   6.456   1.106
20930SOL     OW66583   6.946   6.448   1.045
20930SOL    HW166584   6.871   6.448   0.979
20930SOL    HW266585   6.983   6.356   1.054
20931SOL     OW66586   6.795   6.111   0.275
20931SOL    HW166587   6.808   6.027   0.329
20931SOL    HW266588   6.766   6.185   0.335
20932SOL     OW66589   5.893   5.799   1.231
20932SOL    HW166590   5.870   5.836   1.321
20932SOL    HW266591   5.863   5.704   1.225
20933SOL     OW66592   5.623   6.896   1.282
20933SOL    HW166593   5.676   6.847   1.350
20933SOL    HW266594   5.645   6.994   1.287
20934SOL     OW66595   6.318   6.220   1.064
20934SOL    HW166596   6.377   6.194   0.988
20934SOL    HW266597   6.290   6.316   1.053
20935SOL     OW66598   7.314   6.521   1.854
20935SOL    HW166599   7.268   6.514   1.765
20935SOL    HW266600   7.252   6.565   1.920
20936SOL     OW66601   7.208   5.953   0.374
20936SOL    HW166602   7.210   5.877   0.438
20936SOL    HW266603   7.160   6.030   0.414
20937SOL     OW66604   6.609   6.352   0.966
20937SOL    HW166605   6.624   6.373   1.062
20937SOL    HW266606   6.579   6.257   0.957
20938SOL     OW66607   6.566   7.159   1.700
20938SOL    HW166608   6.546   7.203   1.612
20938SOL    HW266609   6.605   7.068   1.684
20939SOL     OW66610   7.445   7.104   1.605
20939SOL    HW166611   7.459   7.131   1.510
20939SOL    HW266612   7.528   7.126   1.658
20940SOL     OW66613   5.936   6.484   1.804
20940SOL    HW166614   6.012   6.528   1.852
20940SOL    HW266615   5.971   6.437   1.722
20941SOL     OW66616   7.126   5.860   0.125
20941SOL    HW166617   7.065   5.785   0.148
20941SOL    HW266618   7.148   5.912   0.208
20942SOL     OW66619   6.889   6.424   0.042
20942SOL    HW166620   6.923   6.331   0.057
20942SOL    HW266621   6.907   6.451  -0.053
20943SOL     OW66622   6.654   6.919   0.849
20943SOL    HW166623   6.661   6.835   0.794
20943SOL    HW266624   6.716   6.988   0.813
20944SOL     OW66625   5.905   6.396   0.949
20944SOL    HW166626   5.998   6.432   0.954
20944SOL    HW266627   5.899   6.311   1.001
20945SOL     OW66628   5.925   6.095   1.006
20945SOL    HW166629   5.873   6.012   0.989
20945SOL    HW266630   6.002   6.100   0.942
20946SOL     OW66631   6.724   5.966   1.678
20946SOL    HW166632   6.679   6.029   1.742
20946SOL    HW266633   6.817   5.997   1.661
20947SOL     OW66634   6.746   5.793   1.477
20947SOL    HW166635   6.746   5.857   1.554
20947SOL    HW266636   6.774   5.841   1.394
20948SOL     OW66637   5.594   6.912   0.200
20948SOL    HW166638   5.501   6.933   0.169
20948SOL    HW266639   5.604   6.813   0.213
20949SOL     OW66640   5.674   7.387   0.927
20949SOL    HW166641   5.632   7.301   0.900
20949SOL    HW266642   5.768   7.390   0.893
20950SOL     OW66643   6.090   7.154   0.910
20950SOL    HW166644   6.156   7.228   0.919
20950SOL    HW266645   6.134   7.075   0.868
20951SOL     OW66646   6.588   6.382   1.238
20951SOL    HW166647   6.629   6.350   1.324
20951SOL    HW266648   6.492   6.355   1.235
20952SOL     OW66649   5.626   6.130   1.114
20952SOL    HW166650   5.711   6.097   1.073
20952SOL    HW266651   5.639   6.145   1.212
20953SOL     OW66652   5.775   6.106   1.722
20953SOL    HW166653   5.834   6.066   1.652
20953SOL    HW266654   5.717   6.177   1.681
20954SOL     OW66655   6.955   6.536   1.660
20954SOL    HW166656   6.994   6.625   1.680
20954SOL    HW266657   6.965   6.516   1.563
20955SOL     OW66658   6.401   6.158   0.325
20955SOL    HW166659   6.408   6.069   0.279
20955SOL    HW266660   6.307   6.192   0.317
20956SOL     OW66661   7.243   6.190   1.206
20956SOL    HW166662   7.205   6.121   1.268
20956SOL    HW266663   7.325   6.154   1.162
20957SOL     OW66664   5.838   7.150   1.744
20957SOL    HW166665   5.808   7.207   1.820
20957SOL    HW266666   5.831   7.053   1.770
20958SOL     OW66667   6.257   6.050   1.269
20958SOL    HW166668   6.223   5.961   1.239
20958SOL    HW266669   6.283   6.104   1.189
20959SOL     OW66670   6.516   7.264   1.465
20959SOL    HW166671   6.492   7.246   1.370
20959SOL    HW266672   6.546   7.358   1.475
20960SOL     OW66673   6.059   6.086   0.191
20960SOL    HW166674   6.120   6.166   0.195
20960SOL    HW266675   5.964   6.117   0.198
20961SOL     OW66676   5.745   6.723   1.466
20961SOL    HW166677   5.767   6.662   1.542
20961SOL    HW266678   5.755   6.674   1.380
20962SOL     OW66679   6.933   6.645   1.234
20962SOL    HW166680   6.957   6.582   1.160
20962SOL    HW266681   6.843   6.685   1.216
20963SOL     OW66682   6.888   6.441   0.309
20963SOL    HW166683   6.802   6.410   0.351
20963SOL    HW266684   6.884   6.427   0.210
20964SOL     OW66685   7.345   7.333   1.154
20964SOL    HW166686   7.406   7.363   1.081
20964SOL    HW266687   7.307   7.244   1.132
20965SOL     OW66688   6.838   7.317   1.128
20965SOL    HW166689   6.922   7.322   1.074
20965SOL    HW266690   6.815   7.221   1.146
20966SOL     OW66691   5.669   6.844   1.022
20966SOL    HW166692   5.664   6.843   1.122
20966SOL    HW266693   5.586   6.803   0.984
20967SOL     OW66694   6.274   7.248   1.716
20967SOL    HW166695   6.218   7.329   1.725
20967SOL    HW266696   6.326   7.252   1.630
20968SOL     OW66697   6.489   5.672   0.133
20968SOL    HW166698   6.540   5.673   0.047
20968SOL    HW266699   6.545   5.630   0.204
20969SOL     OW66700   7.312   5.721   0.523
20969SOL    HW166701   7.385   5.704   0.456
20969SOL    HW266702   7.281   5.634   0.561
20970SOL     OW66703   6.974   7.159   0.477
20970SOL    HW166704   7.041   7.171   0.403
20970SOL    HW266705   6.934   7.248   0.500
20971SOL     OW66706   5.716   7.380   1.851
20971SOL    HW166707   5.675   7.306   1.904
20971SOL    HW266708   5.780   7.431   1.909
20972SOL     OW66709   6.866   6.513   0.672
20972SOL    HW166710   6.926   6.432   0.674
20972SOL    HW266711   6.906   6.582   0.612
20973SOL     OW66712   6.416   6.859   1.422
20973SOL    HW166713   6.411   6.892   1.517
20973SOL    HW266714   6.330   6.878   1.376
20974SOL     OW66715   6.258   7.202   0.154
20974SOL    HW166716   6.267   7.212   0.055
20974SOL    HW266717   6.218   7.113   0.175
20975SOL     OW66718   7.236   7.306   1.394
20975SOL    HW166719   7.289   7.316   1.310
20975SOL    HW266720   7.209   7.396   1.428
20976SOL     OW66721   7.427   5.761   0.963
20976SOL    HW166722   7.466   5.676   0.927
20976SOL    HW266723   7.329   5.763   0.944
20977SOL     OW66724   5.849   5.912   0.720
20977SOL    HW166725   5.770   5.963   0.686
20977SOL    HW266726   5.840   5.897   0.818
20978SOL     OW66727   6.780   7.198   0.031
20978SOL    HW166728   6.786   7.105   0.068
20978SOL    HW266729   6.721   7.198  -0.049
20979SOL     OW66730   6.408   6.588   1.372
20979SOL    HW166731   6.448   6.587   1.280
20979SOL    HW266732   6.418   6.680   1.412
20980SOL     OW66733   6.502   6.496   0.291
20980SOL    HW166734   6.565   6.534   0.223
20980SOL    HW266735   6.542   6.413   0.330
20981SOL     OW66736   7.090   7.193   0.044
20981SOL    HW166737   6.998   7.230   0.051
20981SOL    HW266738   7.128   7.213  -0.046
20982SOL     OW66739   5.958   6.874   1.490
20982SOL    HW166740   5.945   6.967   1.456
20982SOL    HW266741   5.874   6.822   1.477
20983SOL     OW66742   7.200   6.878   1.289
20983SOL    HW166743   7.260   6.881   1.369
20983SOL    HW266744   7.125   6.942   1.302
20984SOL     OW66745   6.625   6.684   0.696
20984SOL    HW166746   6.555   6.637   0.750
20984SOL    HW266747   6.684   6.616   0.653
20985SOL     OW66748   6.600   5.822   0.971
20985SOL    HW166749   6.592   5.786   0.878
20985SOL    HW266750   6.598   5.746   1.036
20986SOL     OW66751   6.176   7.073   0.491
20986SOL    HW166752   6.218   7.015   0.421
20986SOL    HW266753   6.132   7.152   0.447
20987SOL     OW66754   7.295   5.971   1.381
20987SOL    HW166755   7.368   6.040   1.385
20987SOL    HW266756   7.323   5.896   1.322
20988SOL     OW66757   5.841   6.934   0.290
20988SOL    HW166758   5.745   6.935   0.263
20988SOL    HW266759   5.853   6.987   0.374
20989SOL     OW66760   5.691   6.599   1.726
20989SOL    HW166761   5.614   6.566   1.780
20989SOL    HW266762   5.776   6.569   1.768
20990SOL     OW66763   6.258   5.789   1.489
20990SOL    HW166764   6.348   5.773   1.449
20990SOL    HW266765   6.266   5.794   1.588
20991SOL     OW66766   5.661   5.931   0.033
20991SOL    HW166767   5.569   5.903   0.004
20991SOL    HW266768   5.692   6.008  -0.023
20992SOL     OW66769   7.026   6.442   1.398
20992SOL    HW166770   6.969   6.494   1.335
20992SOL    HW266771   7.122   6.454   1.374
20993SOL     OW66772   5.658   5.752   0.318
20993SOL    HW166773   5.641   5.835   0.264
20993SOL    HW266774   5.748   5.715   0.296
20994SOL     OW66775   6.769   6.921   0.119
20994SOL    HW166776   6.670   6.910   0.121
20994SOL    HW266777   6.803   6.936   0.212
20995SOL     OW66778   6.199   6.428   1.431
20995SOL    HW166779   6.255   6.509   1.414
20995SOL    HW266780   6.258   6.348   1.434
20996SOL     OW66781   7.079   7.353   0.959
20996SOL    HW166782   7.112   7.417   0.890
20996SOL    HW266783   7.145   7.347   1.034
20997SOL     OW66784   6.302   6.151   1.708
20997SOL    HW166785   6.321   6.216   1.782
20997SOL    HW266786   6.362   6.071   1.717
20998SOL     OW66787   7.036   6.806   1.633
20998SOL    HW166788   7.027   6.796   1.732
20998SOL    HW266789   7.132   6.799   1.607
20999SOL     OW66790   5.976   7.327   1.560
20999SOL    HW166791   5.885   7.368   1.558
20999SOL    HW266792   5.969   7.233   1.592
21000SOL     OW66793   7.260   6.469   1.254
21000SOL    HW166794   7.233   6.380   1.217
21000SOL    HW266795   7.261   6.537   1.181
21001SOL     OW66796   6.811   5.911   0.449
21001SOL    HW166797   6.876   5.837   0.438
21001SOL    HW266798   6.831   5.961   0.533
21002SOL     OW66799   6.180   6.331   0.652
21002SOL    HW166800   6.230   6.416   0.633
21002SOL    HW266801   6.092   6.333   0.604
21003SOL     OW66802   7.363   5.928   1.642
21003SOL    HW166803   7.346   5.959   1.548
21003SOL    HW266804   7.279   5.891   1.680
21004SOL     OW66805   7.316   6.520   1.517
21004SOL    HW166806   7.354   6.611   1.532
21004SOL    HW266807   7.308   6.503   1.418
21005SOL     OW66808   6.445   6.960   0.016
21005SOL    HW166809   6.399   6.975   0.104
21005SOL    HW266810   6.489   7.045  -0.014
21006SOL     OW66811   6.247   7.376   0.953
21006SOL    HW166812   6.201   7.464   0.940
21006SOL    HW266813   6.346   7.388   0.946
21007SOL     OW66814   6.445   6.542   0.861
21007SOL    HW166815   6.499   6.473   0.909
21007SOL    HW266816   6.413   6.611   0.927
21008SOL     OW66817   6.669   6.570   0.087
21008SOL    HW166818   6.646   6.623   0.005
21008SOL    HW266819   6.750   6.514   0.068
21009SOL     OW66820   7.447   7.155   0.851
21009SOL    HW166821   7.376   7.143   0.781
21009SOL    HW266822   7.448   7.076   0.911
21010SOL     OW66823   5.807   6.900   1.844
21010SOL    HW166824   5.742   6.827   1.823
21010SOL    HW266825   5.811   6.914   1.942
21011SOL     OW66826   5.665   6.826   0.653
21011SOL    HW166827   5.664   6.779   0.741
21011SOL    HW266828   5.747   6.798   0.602
21012SOL     OW66829   6.258   6.977   1.624
21012SOL    HW166830   6.180   6.927   1.662
21012SOL    HW266831   6.255   7.072   1.655
21013SOL     OW66832   7.410   5.778   1.227
21013SOL    HW166833   7.406   5.688   1.271
21013SOL    HW266834   7.413   5.767   1.128
21014SOL     OW66835   6.014   6.010   0.520
21014SOL    HW166836   6.044   5.938   0.458
21014SOL    HW266837   5.975   5.970   0.603
21015SOL     OW66838   7.291   7.073   1.104
21015SOL    HW166839   7.198   7.048   1.077
21015SOL    HW266840   7.317   7.023   1.186
21016SOL     OW66841   5.903   6.133   1.280
21016SOL    HW166842   5.941   6.074   1.352
21016SOL    HW266843   5.943   6.107   1.192
21017SOL     OW66844   6.398   7.172   0.687
21017SOL    HW166845   6.430   7.182   0.593
21017SOL    HW266846   6.319   7.110   0.689
21018SOL     OW66847   7.010   5.800   1.112
21018SOL    HW166848   7.062   5.735   1.167
21018SOL    HW266849   6.961   5.863   1.173
21019SOL     OW66850   6.587   5.620   1.154
21019SOL    HW166851   6.524   5.548   1.123
21019SOL    HW266852   6.680   5.584   1.154
21020SOL     OW66853   6.356   6.916   0.301
21020SOL    HW166854   6.310   6.829   0.318
21020SOL    HW266855   6.447   6.913   0.342
21021SOL     OW66856   6.204   7.153   1.284
21021SOL    HW166857   6.199   7.235   1.341
21021SOL    HW266858   6.293   7.150   1.239
21022SOL     OW66859   6.938   5.638   0.168
21022SOL    HW166860   6.973   5.597   0.084
21022SOL    HW266861   6.848   5.600   0.188
21023SOL     OW66862   6.886   6.039   0.691
21023SOL    HW166863   6.827   6.119   0.695
21023SOL    HW266864   6.901   6.004   0.784
21024SOL     OW66865   7.179   5.807   0.882
21024SOL    HW166866   7.095   5.806   0.936
21024SOL    HW266867   7.181   5.890   0.826
21025SOL     OW66868   5.625   6.663   0.300
21025SOL    HW166869   5.724   6.652   0.291
21025SOL    HW266870   5.585   6.577   0.332
21026SOL     OW66871   5.816   6.214   1.975
21026SOL    HW166872   5.723   6.212   2.012
21026SOL    HW266873   5.817   6.175   1.883
21027SOL     OW66874   5.811   5.861   2.858
21027SOL    HW166875   5.846   5.844   2.950
21027SOL    HW266876   5.723   5.816   2.846
21028SOL     OW66877   5.605   5.954   2.509
21028SOL    HW166878   5.523   5.997   2.548
21028SOL    HW266879   5.577   5.881   2.446
21029SOL     OW66880   6.155   6.861   3.027
21029SOL    HW166881   6.062   6.854   2.990
21029SOL    HW266882   6.166   6.950   3.071
21030SOL     OW66883   7.141   7.097   2.565
21030SOL    HW166884   7.084   7.081   2.646
21030SOL    HW266885   7.082   7.107   2.485
21031SOL     OW66886   6.721   6.289   2.579
21031SOL    HW166887   6.778   6.367   2.554
21031SOL    HW266888   6.661   6.315   2.655
21032SOL     OW66889   7.341   6.193   2.093
21032SOL    HW166890   7.329   6.180   1.994
21032SOL    HW266891   7.311   6.112   2.142
21033SOL     OW66892   6.354   6.730   2.885
21033SOL    HW166893   6.276   6.747   2.945
21033SOL    HW266894   6.388   6.817   2.849
21034SOL     OW66895   6.436   6.384   3.685
21034SOL    HW166896   6.432   6.460   3.750
21034SOL    HW266897   6.458   6.420   3.594
21035SOL     OW66898   6.271   6.598   2.527
21035SOL    HW166899   6.340   6.582   2.597
21035SOL    HW266900   6.198   6.655   2.565
21036SOL     OW66901   6.272   6.747   3.665
21036SOL    HW166902   6.332   6.826   3.679
21036SOL    HW266903   6.186   6.778   3.624
21037SOL     OW66904   5.921   7.021   2.923
21037SOL    HW166905   5.843   6.990   2.870
21037SOL    HW266906   5.979   7.079   2.866
21038SOL     OW66907   7.046   7.091   3.201
21038SOL    HW166908   7.070   7.185   3.227
21038SOL    HW266909   7.030   7.037   3.283
21039SOL     OW66910   6.024   5.978   3.361
21039SOL    HW166911   6.106   5.922   3.370
21039SOL    HW266912   5.943   5.920   3.365
21040SOL     OW66913   7.189   6.033   2.599
21040SOL    HW166914   7.115   6.079   2.549
21040SOL    HW266915   7.240   6.101   2.652
21041SOL     OW66916   5.817   7.299   2.345
21041SOL    HW166917   5.851   7.376   2.399
21041SOL    HW266918   5.861   7.299   2.255
21042SOL     OW66919   6.713   6.927   3.552
21042SOL    HW166920   6.760   6.927   3.640
21042SOL    HW266921   6.665   6.840   3.541
21043SOL     OW66922   5.816   7.020   2.400
21043SOL    HW166923   5.790   7.116   2.400
21043SOL    HW266924   5.745   6.966   2.445
21044SOL     OW66925   5.826   6.677   2.748
21044SOL    HW166926   5.840   6.593   2.800
21044SOL    HW266927   5.771   6.741   2.803
21045SOL     OW66928   6.206   7.372   3.301
21045SOL    HW166929   6.114   7.355   3.336
21045SOL    HW266930   6.234   7.464   3.327
21046SOL     OW66931   6.192   6.550   1.985
21046SOL    HW166932   6.199   6.634   1.931
21046SOL    HW266933   6.238   6.563   2.073
21047SOL     OW66934   7.180   5.700   3.342
21047SOL    HW166935   7.162   5.767   3.270
21047SOL    HW266936   7.177   5.746   3.431
21048SOL     OW66937   5.708   6.229   2.425
21048SOL    HW166938   5.663   6.141   2.442
21048SOL    HW266939   5.707   6.283   2.509
21049SOL     OW66940   7.428   7.353   2.221
21049SOL    HW166941   7.482   7.324   2.301
21049SOL    HW266942   7.458   7.443   2.192
21050SOL     OW66943   5.613   7.182   1.979
21050SOL    HW166944   5.594   7.086   2.000
21050SOL    HW266945   5.580   7.240   2.054
21051SOL     OW66946   7.275   6.508   2.474
21051SOL    HW166947   7.370   6.479   2.482
21051SOL    HW266948   7.267   6.573   2.399
21052SOL     OW66949   7.227   6.694   2.294
21052SOL    HW166950   7.313   6.696   2.242
21052SOL    HW266951   7.241   6.741   2.382
21053SOL     OW66952   5.699   6.323   3.459
21053SOL    HW166953   5.787   6.310   3.504
21053SOL    HW266954   5.686   6.420   3.437
21054SOL     OW66955   6.199   6.951   2.588
21054SOL    HW166956   6.150   6.864   2.597
21054SOL    HW266957   6.176   6.994   2.501
21055SOL     OW66958   6.879   6.814   3.285
21055SOL    HW166959   6.916   6.741   3.227
21055SOL    HW266960   6.931   6.819   3.370
21056SOL     OW66961   6.395   5.590   2.364
21056SOL    HW166962   6.435   5.681   2.355
21056SOL    HW266963   6.295   5.598   2.370
21057SOL     OW66964   5.783   6.562   3.126
21057SOL    HW166965   5.872   6.517   3.112
21057SOL    HW266966   5.710   6.497   3.107
21058SOL     OW66967   7.111   6.585   2.052
21058SOL    HW166968   7.048   6.509   2.065
21058SOL    HW266969   7.159   6.603   2.138
21059SOL     OW66970   6.773   7.378   3.478
21059SOL    HW166971   6.797   7.438   3.402
21059SOL    HW266972   6.780   7.283   3.448
21060SOL     OW66973   5.903   5.837   3.663
21060SOL    HW166974   5.974   5.908   3.669
21060SOL    HW266975   5.815   5.876   3.691
21061SOL     OW66976   7.052   7.003   2.815
21061SOL    HW166977   6.993   7.009   2.895
21061SOL    HW266978   7.037   6.915   2.769
21062SOL     OW66979   7.253   7.300   2.434
21062SOL    HW166980   7.212   7.277   2.346
21062SOL    HW266981   7.235   7.226   2.499
21063SOL     OW66982   6.184   6.315   2.132
21063SOL    HW166983   6.208   6.384   2.064
21063SOL    HW266984   6.106   6.348   2.186
21064SOL     OW66985   6.867   5.931   2.806
21064SOL    HW166986   6.781   5.881   2.793
21064SOL    HW266987   6.929   5.877   2.862
21065SOL     OW66988   7.162   7.248   2.169
21065SOL    HW166989   7.251   7.294   2.172
21065SOL    HW266990   7.141   7.224   2.074
21066SOL     OW66991   6.393   6.191   3.327
21066SOL    HW166992   6.346   6.188   3.416
21066SOL    HW266993   6.342   6.136   3.261
21067SOL     OW66994   6.980   6.055   3.536
21067SOL    HW166995   6.960   6.098   3.624
21067SOL    HW266996   7.058   5.993   3.545
21068SOL     OW66997   6.559   6.476   3.434
21068SOL    HW166998   6.605   6.392   3.405
21068SOL    HW266999   6.503   6.510   3.359
21069SOL     OW67000   6.577   5.996   3.104
21069SOL    HW167001   6.500   6.030   3.158
21069SOL    HW267002   6.543   5.945   3.025
21070SOL     OW67003   6.627   6.287   2.291
21070SOL    HW167004   6.653   6.283   2.387
21070SOL    HW267005   6.542   6.236   2.277
21071SOL     OW67006   5.662   6.397   2.651
21071SOL    HW167007   5.761   6.385   2.660
21071SOL    HW267008   5.638   6.492   2.672
21072SOL     OW67009   5.716   7.407   3.433
21072SOL    HW167010   5.706   7.392   3.532
21072SOL    HW267011   5.630   7.443   3.397
21073SOL     OW67012   6.451   5.934   2.057
21073SOL    HW167013   6.510   5.997   2.008
21073SOL    HW267014   6.470   5.840   2.028
21074SOL     OW67015   7.305   6.171   3.693
21074SOL    HW167016   7.279   6.260   3.657
21074SOL    HW267017   7.303   6.103   3.620
21075SOL     OW67018   6.948   6.730   2.407
21075SOL    HW167019   7.031   6.701   2.359
21075SOL    HW267020   6.899   6.797   2.351
21076SOL     OW67021   6.136   5.782   2.747
21076SOL    HW167022   6.131   5.777   2.847
21076SOL    HW267023   6.138   5.878   2.718
21077SOL     OW67024   6.594   7.042   2.339
21077SOL    HW167025   6.548   7.114   2.287
21077SOL    HW267026   6.590   7.062   2.437
21078SOL     OW67027   5.937   7.387   2.715
21078SOL    HW167028   5.987   7.301   2.721
21078SOL    HW267029   6.002   7.464   2.712
21079SOL     OW67030   7.381   6.652   2.735
21079SOL    HW167031   7.319   6.637   2.659
21079SOL    HW267032   7.329   6.663   2.820
21080SOL     OW67033   6.813   7.136   3.368
21080SOL    HW167034   6.819   7.059   3.432
21080SOL    HW267035   6.761   7.110   3.288
21081SOL     OW67036   5.907   6.529   2.104
21081SOL    HW167037   5.989   6.568   2.062
21081SOL    HW267038   5.880   6.447   2.055
21082SOL     OW67039   7.044   6.321   2.590
21082SOL    HW167040   7.039   6.256   2.665
21082SOL    HW267041   7.124   6.380   2.603
21083SOL     OW67042   6.047   6.852   3.589
21083SOL    HW167043   5.997   6.853   3.503
21083SOL    HW267044   5.984   6.834   3.665
21084SOL     OW67045   6.697   7.362   2.099
21084SOL    HW167046   6.637   7.300   2.149
21084SOL    HW267047   6.728   7.318   2.014
21085SOL     OW67048   5.788   5.871   3.360
21085SOL    HW167049   5.708   5.931   3.347
21085SOL    HW267050   5.778   5.822   3.446
21086SOL     OW67051   7.218   6.963   1.943
21086SOL    HW167052   7.186   7.057   1.933
21086SOL    HW267053   7.142   6.900   1.931
21087SOL     OW67054   6.050   7.329   2.185
21087SOL    HW167055   6.083   7.368   2.271
21087SOL    HW267056   6.126   7.322   2.120
21088SOL     OW67057   6.986   5.693   2.288
21088SOL    HW167058   6.962   5.656   2.198
21088SOL    HW267059   7.085   5.709   2.292
21089SOL     OW67060   5.835   7.371   3.103
21089SOL    HW167061   5.892   7.306   3.153
21089SOL    HW267062   5.819   7.338   3.010
21090SOL     OW67063   6.526   7.284   2.766
21090SOL    HW167064   6.606   7.227   2.787
21090SOL    HW267065   6.477   7.244   2.689
21091SOL     OW67066   5.968   6.286   2.342
21091SOL    HW167067   6.013   6.196   2.339
21091SOL    HW267068   5.874   6.275   2.375
21092SOL     OW67069   7.133   5.808   3.591
21092SOL    HW167070   7.128   5.845   3.683
21092SOL    HW267071   7.061   5.739   3.579
21093SOL     OW67072   6.200   5.708   1.979
21093SOL    HW167073   6.298   5.686   1.986
21093SOL    HW267074   6.169   5.691   1.886
21094SOL     OW67075   6.367   5.850   3.611
21094SOL    HW167076   6.434   5.789   3.654
21094SOL    HW267077   6.294   5.869   3.676
21095SOL     OW67078   6.474   7.100   3.057
21095SOL    HW167079   6.451   7.075   2.963
21095SOL    HW267080   6.535   7.031   3.096
21096SOL     OW67081   6.937   6.176   3.295
21096SOL    HW167082   6.965   6.133   3.380
21096SOL    HW267083   6.962   6.272   3.296
21097SOL     OW67084   6.389   6.988   2.786
21097SOL    HW167085   6.479   7.002   2.744
21097SOL    HW267086   6.318   6.990   2.715
21098SOL     OW67087   6.508   6.089   2.761
21098SOL    HW167088   6.483   6.080   2.665
21098SOL    HW267089   6.556   6.007   2.792
21099SOL     OW67090   6.125   5.650   2.374
21099SOL    HW167091   6.044   5.651   2.432
21099SOL    HW267092   6.128   5.733   2.319
21100SOL     OW67093   7.020   6.774   1.903
21100SOL    HW167094   7.052   6.698   1.960
21100SOL    HW267095   6.928   6.801   1.933
21101SOL     OW67096   5.883   5.621   2.033
21101SOL    HW167097   5.932   5.705   2.012
21101SOL    HW267098   5.945   5.556   2.078
21102SOL     OW67099   6.521   5.822   2.342
21102SOL    HW167100   6.473   5.863   2.264
21102SOL    HW267101   6.620   5.820   2.323
21103SOL     OW67102   6.662   6.269   3.326
21103SOL    HW167103   6.582   6.208   3.329
21103SOL    HW267104   6.743   6.216   3.302
21104SOL     OW67105   6.813   7.156   2.655
21104SOL    HW167106   6.834   7.230   2.590
21104SOL    HW267107   6.881   7.156   2.728
21105SOL     OW67108   6.045   6.738   2.603
21105SOL    HW167109   5.974   6.711   2.668
21105SOL    HW267110   6.019   6.710   2.510
21106SOL     OW67111   6.857   7.383   2.453
21106SOL    HW167112   6.901   7.447   2.389
21106SOL    HW267113   6.807   7.435   2.523
21107SOL     OW67114   6.618   6.135   1.878
21107SOL    HW167115   6.577   6.217   1.839
21107SOL    HW267116   6.682   6.161   1.951
21108SOL     OW67117   5.664   6.142   3.248
21108SOL    HW167118   5.756   6.141   3.207
21108SOL    HW267119   5.658   6.216   3.315
21109SOL     OW67120   6.147   5.808   3.009
21109SOL    HW167121   6.185   5.724   3.046
21109SOL    HW267122   6.059   5.827   3.053
21110SOL     OW67123   6.452   6.040   2.504
21110SOL    HW167124   6.420   6.112   2.442
21110SOL    HW267125   6.476   5.959   2.451
21111SOL     OW67126   6.603   5.625   2.615
21111SOL    HW167127   6.531   5.630   2.546
21111SOL    HW267128   6.579   5.556   2.684
21112SOL     OW67129   7.015   6.759   2.729
21112SOL    HW167130   6.960   6.675   2.722
21112SOL    HW267131   7.041   6.788   2.637
21113SOL     OW67132   7.052   6.176   2.854
21113SOL    HW167133   7.022   6.081   2.861
21113SOL    HW267134   7.125   6.192   2.920
21114SOL     OW67135   7.443   6.419   2.239
21114SOL    HW167136   7.485   6.355   2.303
21114SOL    HW267137   7.405   6.368   2.161
21115SOL     OW67138   6.074   6.971   2.036
21115SOL    HW167139   5.987   6.956   2.083
21115SOL    HW267140   6.057   6.997   1.941
21116SOL     OW67141   7.250   6.866   2.519
21116SOL    HW167142   7.349   6.874   2.533
21116SOL    HW267143   7.205   6.950   2.550
21117SOL     OW67144   6.976   6.161   1.940
21117SOL    HW167145   6.922   6.140   2.021
21117SOL    HW267146   7.067   6.120   1.949
21118SOL     OW67147   6.113   5.842   2.190
21118SOL    HW167148   6.140   5.783   2.115
21118SOL    HW267149   6.113   5.937   2.159
21119SOL     OW67150   7.340   6.809   3.450
21119SOL    HW167151   7.431   6.770   3.437
21119SOL    HW267152   7.348   6.905   3.474
21120SOL     OW67153   6.650   6.933   3.202
21120SOL    HW167154   6.570   6.910   3.257
21120SOL    HW267155   6.733   6.907   3.251
21121SOL     OW67156   7.178   7.215   3.487
21121SOL    HW167157   7.205   7.249   3.397
21121SOL    HW267158   7.257   7.177   3.533
21122SOL     OW67159   6.697   6.781   2.962
21122SOL    HW167160   6.657   6.825   3.043
21122SOL    HW267161   6.656   6.818   2.879
21123SOL     OW67162   7.224   6.685   2.941
21123SOL    HW167163   7.229   6.766   3.000
21123SOL    HW267164   7.138   6.687   2.890
21124SOL     OW67165   6.501   5.675   3.264
21124SOL    HW167166   6.526   5.655   3.169
21124SOL    HW267167   6.573   5.731   3.306
21125SOL     OW67168   6.566   6.702   3.581
21125SOL    HW167169   6.467   6.708   3.591
21125SOL    HW267170   6.589   6.622   3.525
21126SOL     OW67171   6.291   6.636   2.230
21126SOL    HW167172   6.277   6.643   2.329
21126SOL    HW267173   6.375   6.585   2.212
21127SOL     OW67174   5.996   6.399   3.113
21127SOL    HW167175   6.082   6.411   3.163
21127SOL    HW267176   5.954   6.312   3.140
21128SOL     OW67177   6.860   5.972   3.124
21128SOL    HW167178   6.881   6.046   3.188
21128SOL    HW267179   6.771   5.989   3.081
21129SOL     OW67180   5.650   7.150   3.193
21129SOL    HW167181   5.604   7.232   3.159
21129SOL    HW267182   5.748   7.169   3.202
21130SOL     OW67183   5.953   6.686   2.363
21130SOL    HW167184   5.946   6.769   2.307
21130SOL    HW267185   5.957   6.606   2.303
21131SOL     OW67186   6.152   6.123   2.727
21131SOL    HW167187   6.164   6.189   2.653
21131SOL    HW267188   6.198   6.157   2.810
21132SOL     OW67189   6.838   6.934   2.250
21132SOL    HW167190   6.888   7.011   2.290
21132SOL    HW267191   6.743   6.936   2.282
21133SOL     OW67192   6.858   7.031   3.004
21133SOL    HW167193   6.905   7.044   3.091
21133SOL    HW267194   6.792   6.957   3.013
21134SOL     OW67195   7.168   6.225   2.334
21134SOL    HW167196   7.137   6.286   2.407
21134SOL    HW267197   7.218   6.277   2.265
21135SOL     OW67198   5.940   7.096   3.191
21135SOL    HW167199   5.919   7.052   3.104
21135SOL    HW267200   6.037   7.122   3.194
21136SOL     OW67201   5.988   6.337   3.460
21136SOL    HW167202   6.056   6.392   3.413
21136SOL    HW267203   6.028   6.249   3.487
21137SOL     OW67204   7.173   6.365   3.532
21137SOL    HW167205   7.081   6.403   3.527
21137SOL    HW267206   7.233   6.412   3.467
21138SOL     OW67207   6.599   5.691   3.632
21138SOL    HW167208   6.605   5.776   3.580
21138SOL    HW267209   6.631   5.615   3.575
21139SOL     OW67210   6.090   5.636   3.602
21139SOL    HW167211   6.048   5.579   3.532
21139SOL    HW267212   6.024   5.705   3.634
21140SOL     OW67213   6.159   6.456   2.891
21140SOL    HW167214   6.203   6.545   2.882
21140SOL    HW267215   6.096   6.456   2.968
21141SOL     OW67216   6.946   6.448   2.907
21141SOL    HW167217   6.871   6.448   2.841
21141SOL    HW267218   6.983   6.356   2.916
21142SOL     OW67219   6.795   6.111   2.137
21142SOL    HW167220   6.808   6.027   2.191
21142SOL    HW267221   6.766   6.185   2.197
21143SOL     OW67222   5.893   5.799   3.093
21143SOL    HW167223   5.870   5.836   3.183
21143SOL    HW267224   5.863   5.704   3.087
21144SOL     OW67225   5.623   6.896   3.144
21144SOL    HW167226   5.676   6.847   3.212
21144SOL    HW267227   5.645   6.994   3.149
21145SOL     OW67228   6.318   6.220   2.926
21145SOL    HW167229   6.377   6.194   2.850
21145SOL    HW267230   6.290   6.316   2.915
21146SOL     OW67231   7.314   6.521   3.716
21146SOL    HW167232   7.268   6.514   3.627
21146SOL    HW267233   7.252   6.565   3.782
21147SOL     OW67234   5.893   5.649   2.480
21147SOL    HW167235   5.882   5.743   2.513
21147SOL    HW267236   5.888   5.586   2.557
21148SOL     OW67237   7.208   5.953   2.236
21148SOL    HW167238   7.210   5.877   2.300
21148SOL    HW267239   7.160   6.030   2.276
21149SOL     OW67240   6.609   6.352   2.828
21149SOL    HW167241   6.624   6.373   2.924
21149SOL    HW267242   6.579   6.257   2.819
21150SOL     OW67243   6.566   7.159   3.562
21150SOL    HW167244   6.546   7.203   3.474
21150SOL    HW267245   6.605   7.068   3.546
21151SOL     OW67246   7.445   7.104   3.467
21151SOL    HW167247   7.459   7.131   3.372
21151SOL    HW267248   7.528   7.126   3.520
21152SOL     OW67249   5.936   6.484   3.666
21152SOL    HW167250   6.012   6.528   3.714
21152SOL    HW267251   5.971   6.437   3.584
21153SOL     OW67252   7.126   5.860   1.987
21153SOL    HW167253   7.065   5.785   2.010
21153SOL    HW267254   7.148   5.912   2.070
21154SOL     OW67255   6.889   6.424   1.904
21154SOL    HW167256   6.923   6.331   1.919
21154SOL    HW267257   6.907   6.451   1.809
21155SOL     OW67258   6.654   6.919   2.711
21155SOL    HW167259   6.661   6.835   2.656
21155SOL    HW267260   6.716   6.988   2.675
21156SOL     OW67261   5.905   6.396   2.811
21156SOL    HW167262   5.998   6.432   2.816
21156SOL    HW267263   5.899   6.311   2.863
21157SOL     OW67264   5.925   6.095   2.868
21157SOL    HW167265   5.873   6.012   2.851
21157SOL    HW267266   6.002   6.100   2.804
21158SOL     OW67267   6.724   5.966   3.540
21158SOL    HW167268   6.679   6.029   3.604
21158SOL    HW267269   6.817   5.997   3.523
21159SOL     OW67270   6.746   5.793   3.339
21159SOL    HW167271   6.746   5.857   3.416
21159SOL    HW267272   6.774   5.841   3.256
21160SOL     OW67273   5.594   6.912   2.062
21160SOL    HW167274   5.501   6.933   2.031
21160SOL    HW267275   5.604   6.813   2.075
21161SOL     OW67276   5.674   7.387   2.789
21161SOL    HW167277   5.632   7.301   2.762
21161SOL    HW267278   5.768   7.390   2.755
21162SOL     OW67279   6.090   7.154   2.772
21162SOL    HW167280   6.156   7.228   2.781
21162SOL    HW267281   6.134   7.075   2.730
21163SOL     OW67282   6.588   6.382   3.100
21163SOL    HW167283   6.629   6.350   3.186
21163SOL    HW267284   6.492   6.355   3.097
21164SOL     OW67285   5.626   6.130   2.976
21164SOL    HW167286   5.711   6.097   2.935
21164SOL    HW267287   5.639   6.145   3.074
21165SOL     OW67288   5.775   6.106   3.584
21165SOL    HW167289   5.834   6.066   3.514
21165SOL    HW267290   5.717   6.177   3.543
21166SOL     OW67291   6.955   6.536   3.522
21166SOL    HW167292   6.994   6.625   3.542
21166SOL    HW267293   6.965   6.516   3.425
21167SOL     OW67294   6.401   6.158   2.187
21167SOL    HW167295   6.408   6.069   2.141
21167SOL    HW267296   6.307   6.192   2.179
21168SOL     OW67297   7.243   6.190   3.068
21168SOL    HW167298   7.205   6.121   3.130
21168SOL    HW267299   7.325   6.154   3.024
21169SOL     OW67300   5.838   7.150   3.606
21169SOL    HW167301   5.808   7.207   3.682
21169SOL    HW267302   5.831   7.053   3.632
21170SOL     OW67303   6.257   6.050   3.131
21170SOL    HW167304   6.223   5.961   3.101
21170SOL    HW267305   6.283   6.104   3.051
21171SOL     OW67306   6.516   7.264   3.327
21171SOL    HW167307   6.492   7.246   3.232
21171SOL    HW267308   6.546   7.358   3.337
21172SOL     OW67309   6.059   6.086   2.053
21172SOL    HW167310   6.120   6.166   2.057
21172SOL    HW267311   5.964   6.117   2.060
21173SOL     OW67312   5.745   6.723   3.328
21173SOL    HW167313   5.767   6.662   3.404
21173SOL    HW267314   5.755   6.674   3.242
21174SOL     OW67315   6.933   6.645   3.096
21174SOL    HW167316   6.957   6.582   3.022
21174SOL    HW267317   6.843   6.685   3.078
21175SOL     OW67318   6.888   6.441   2.171
21175SOL    HW167319   6.802   6.410   2.213
21175SOL    HW267320   6.884   6.427   2.072
21176SOL     OW67321   7.345   7.333   3.016
21176SOL    HW167322   7.406   7.363   2.943
21176SOL    HW267323   7.307   7.244   2.994
21177SOL     OW67324   6.838   7.317   2.990
21177SOL    HW167325   6.922   7.322   2.936
21177SOL    HW267326   6.815   7.221   3.008
21178SOL     OW67327   5.669   6.844   2.884
21178SOL    HW167328   5.664   6.843   2.984
21178SOL    HW267329   5.586   6.803   2.846
21179SOL     OW67330   6.274   7.248   3.578
21179SOL    HW167331   6.218   7.329   3.587
21179SOL    HW267332   6.326   7.252   3.492
21180SOL     OW67333   7.312   5.721   2.385
21180SOL    HW167334   7.385   5.704   2.318
21180SOL    HW267335   7.281   5.634   2.423
21181SOL     OW67336   6.974   7.159   2.339
21181SOL    HW167337   7.041   7.171   2.265
21181SOL    HW267338   6.934   7.248   2.362
21182SOL     OW67339   5.716   7.380   3.713
21182SOL    HW167340   5.675   7.306   3.766
21182SOL    HW267341   5.780   7.431   3.771
21183SOL     OW67342   6.866   6.513   2.534
21183SOL    HW167343   6.926   6.432   2.536
21183SOL    HW267344   6.906   6.582   2.474
21184SOL     OW67345   6.416   6.859   3.284
21184SOL    HW167346   6.411   6.892   3.379
21184SOL    HW267347   6.330   6.878   3.238
21185SOL     OW67348   6.258   7.202   2.016
21185SOL    HW167349   6.267   7.212   1.917
21185SOL    HW267350   6.218   7.113   2.037
21186SOL     OW67351   7.236   7.306   3.256
21186SOL    HW167352   7.289   7.316   3.172
21186SOL    HW267353   7.209   7.396   3.290
21187SOL     OW67354   7.427   5.761   2.825
21187SOL    HW167355   7.466   5.676   2.789
21187SOL    HW267356   7.329   5.763   2.806
21188SOL     OW67357   5.849   5.912   2.582
21188SOL    HW167358   5.770   5.963   2.548
21188SOL    HW267359   5.840   5.897   2.680
21189SOL     OW67360   6.780   7.198   1.893
21189SOL    HW167361   6.786   7.105   1.930
21189SOL    HW267362   6.721   7.198   1.813
21190SOL     OW67363   6.408   6.588   3.234
21190SOL    HW167364   6.448   6.587   3.142
21190SOL    HW267365   6.418   6.680   3.274
21191SOL     OW67366   6.502   6.496   2.153
21191SOL    HW167367   6.565   6.534   2.085
21191SOL    HW267368   6.542   6.413   2.192
21192SOL     OW67369   7.090   7.193   1.906
21192SOL    HW167370   6.998   7.230   1.913
21192SOL    HW267371   7.128   7.213   1.816
21193SOL     OW67372   5.958   6.874   3.352
21193SOL    HW167373   5.945   6.967   3.318
21193SOL    HW267374   5.874   6.822   3.339
21194SOL     OW67375   7.200   6.878   3.151
21194SOL    HW167376   7.260   6.881   3.231
21194SOL    HW267377   7.125   6.942   3.164
21195SOL     OW67378   6.625   6.684   2.558
21195SOL    HW167379   6.555   6.637   2.612
21195SOL    HW267380   6.684   6.616   2.515
21196SOL     OW67381   6.600   5.822   2.833
21196SOL    HW167382   6.592   5.786   2.740
21196SOL    HW267383   6.598   5.746   2.898
21197SOL     OW67384   6.176   7.073   2.353
21197SOL    HW167385   6.218   7.015   2.283
21197SOL    HW267386   6.132   7.152   2.309
21198SOL     OW67387   7.295   5.971   3.243
21198SOL    HW167388   7.368   6.040   3.247
21198SOL    HW267389   7.323   5.896   3.184
21199SOL     OW67390   5.841   6.934   2.152
21199SOL    HW167391   5.745   6.935   2.125
21199SOL    HW267392   5.853   6.987   2.236
21200SOL     OW67393   5.691   6.599   3.588
21200SOL    HW167394   5.614   6.566   3.642
21200SOL    HW267395   5.776   6.569   3.630
21201SOL     OW67396   6.258   5.789   3.351
21201SOL    HW167397   6.348   5.773   3.311
21201SOL    HW267398   6.266   5.794   3.450
21202SOL     OW67399   5.661   5.931   1.895
21202SOL    HW167400   5.569   5.903   1.866
21202SOL    HW267401   5.692   6.008   1.839
21203SOL     OW67402   7.026   6.442   3.260
21203SOL    HW167403   6.969   6.494   3.197
21203SOL    HW267404   7.122   6.454   3.236
21204SOL     OW67405   5.658   5.752   2.180
21204SOL    HW167406   5.641   5.835   2.126
21204SOL    HW267407   5.748   5.715   2.158
21205SOL     OW67408   6.769   6.921   1.981
21205SOL    HW167409   6.670   6.910   1.983
21205SOL    HW267410   6.803   6.936   2.074
21206SOL     OW67411   6.199   6.428   3.293
21206SOL    HW167412   6.255   6.509   3.276
21206SOL    HW267413   6.258   6.348   3.296
21207SOL     OW67414   7.079   7.353   2.821
21207SOL    HW167415   7.112   7.417   2.752
21207SOL    HW267416   7.145   7.347   2.896
21208SOL     OW67417   6.302   6.151   3.570
21208SOL    HW167418   6.321   6.216   3.644
21208SOL    HW267419   6.362   6.071   3.579
21209SOL     OW67420   7.036   6.806   3.495
21209SOL    HW167421   7.027   6.796   3.594
21209SOL    HW267422   7.132   6.799   3.469
21210SOL     OW67423   5.976   7.327   3.422
21210SOL    HW167424   5.885   7.368   3.420
21210SOL    HW267425   5.969   7.233   3.454
21211SOL     OW67426   7.260   6.469   3.116
21211SOL    HW167427   7.233   6.380   3.079
21211SOL    HW267428   7.261   6.537   3.043
21212SOL     OW67429   6.811   5.911   2.311
21212SOL    HW167430   6.876   5.837   2.300
21212SOL    HW267431   6.831   5.961   2.395
21213SOL     OW67432   6.180   6.331   2.514
21213SOL    HW167433   6.230   6.416   2.495
21213SOL    HW267434   6.092   6.333   2.466
21214SOL     OW67435   7.363   5.928   3.504
21214SOL    HW167436   7.346   5.959   3.410
21214SOL    HW267437   7.279   5.891   3.542
21215SOL     OW67438   7.316   6.520   3.379
21215SOL    HW167439   7.354   6.611   3.394
21215SOL    HW267440   7.308   6.503   3.280
21216SOL     OW67441   6.445   6.960   1.878
21216SOL    HW167442   6.399   6.975   1.966
21216SOL    HW267443   6.489   7.045   1.848
21217SOL     OW67444   6.247   7.376   2.815
21217SOL    HW167445   6.201   7.464   2.802
21217SOL    HW267446   6.346   7.388   2.808
21218SOL     OW67447   6.445   6.542   2.723
21218SOL    HW167448   6.499   6.473   2.771
21218SOL    HW267449   6.413   6.611   2.789
21219SOL     OW67450   6.669   6.570   1.949
21219SOL    HW167451   6.646   6.623   1.867
21219SOL    HW267452   6.750   6.514   1.930
21220SOL     OW67453   5.807   6.900   3.706
21220SOL    HW167454   5.742   6.827   3.685
21220SOL    HW267455   5.811   6.914   3.804
21221SOL     OW67456   5.665   6.826   2.515
21221SOL    HW167457   5.664   6.779   2.603
21221SOL    HW267458   5.747   6.798   2.464
21222SOL     OW67459   6.258   6.977   3.486
21222SOL    HW167460   6.180   6.927   3.524
21222SOL    HW267461   6.255   7.072   3.517
21223SOL     OW67462   7.410   5.778   3.089
21223SOL    HW167463   7.406   5.688   3.133
21223SOL    HW267464   7.413   5.767   2.990
21224SOL     OW67465   6.014   6.010   2.382
21224SOL    HW167466   6.044   5.938   2.320
21224SOL    HW267467   5.975   5.970   2.465
21225SOL     OW67468   7.291   7.073   2.966
21225SOL    HW167469   7.198   7.048   2.939
21225SOL    HW267470   7.317   7.023   3.048
21226SOL     OW67471   5.903   6.133   3.142
21226SOL    HW167472   5.941   6.074   3.214
21226SOL    HW267473   5.943   6.107   3.054
21227SOL     OW67474   6.398   7.172   2.549
21227SOL    HW167475   6.430   7.182   2.455
21227SOL    HW267476   6.319   7.110   2.551
21228SOL     OW67477   7.010   5.800   2.974
21228SOL    HW167478   7.062   5.735   3.029
21228SOL    HW267479   6.961   5.863   3.035
21229SOL     OW67480   6.587   5.620   3.016
21229SOL    HW167481   6.524   5.548   2.985
21229SOL    HW267482   6.680   5.584   3.016
21230SOL     OW67483   6.356   6.916   2.163
21230SOL    HW167484   6.310   6.829   2.180
21230SOL    HW267485   6.447   6.913   2.204
21231SOL     OW67486   6.204   7.153   3.146
21231SOL    HW167487   6.199   7.235   3.203
21231SOL    HW267488   6.293   7.150   3.101
21232SOL     OW67489   6.938   5.638   2.030
21232SOL    HW167490   6.973   5.597   1.946
21232SOL    HW267491   6.848   5.600   2.050
21233SOL     OW67492   6.886   6.039   2.553
21233SOL    HW167493   6.827   6.119   2.557
21233SOL    HW267494   6.901   6.004   2.646
21234SOL     OW67495   7.179   5.807   2.744
21234SOL    HW167496   7.095   5.806   2.798
21234SOL    HW267497   7.181   5.890   2.688
21235SOL     OW67498   5.625   6.663   2.162
21235SOL    HW167499   5.724   6.652   2.153
21235SOL    HW267500   5.585   6.577   2.194
21236SOL     OW67501   6.461   7.232   2.199
21236SOL    HW167502   6.384   7.197   2.145
21236SOL    HW267503   6.429   7.303   2.261
21237SOL     OW67504   5.816   6.214   3.837
21237SOL    HW167505   5.723   6.212   3.874
21237SOL    HW267506   5.817   6.175   3.745
21238SOL     OW67507   5.811   5.861   4.720
21238SOL    HW167508   5.846   5.844   4.812
21238SOL    HW267509   5.723   5.816   4.708
21239SOL     OW67510   5.605   5.954   4.371
21239SOL    HW167511   5.523   5.997   4.410
21239SOL    HW267512   5.577   5.881   4.308
21240SOL     OW67513   6.155   6.861   4.889
21240SOL    HW167514   6.062   6.854   4.852
21240SOL    HW267515   6.166   6.950   4.933
21241SOL     OW67516   7.141   7.097   4.427
21241SOL    HW167517   7.084   7.081   4.508
21241SOL    HW267518   7.082   7.107   4.347
21242SOL     OW67519   6.721   6.289   4.441
21242SOL    HW167520   6.778   6.367   4.416
21242SOL    HW267521   6.661   6.315   4.517
21243SOL     OW67522   7.341   6.193   3.955
21243SOL    HW167523   7.329   6.180   3.856
21243SOL    HW267524   7.311   6.112   4.004
21244SOL     OW67525   6.354   6.730   4.747
21244SOL    HW167526   6.276   6.747   4.807
21244SOL    HW267527   6.388   6.817   4.711
21245SOL     OW67528   6.436   6.384   5.547
21245SOL    HW167529   6.432   6.460   5.612
21245SOL    HW267530   6.458   6.420   5.456
21246SOL     OW67531   6.271   6.598   4.389
21246SOL    HW167532   6.340   6.582   4.459
21246SOL    HW267533   6.198   6.655   4.427
21247SOL     OW67534   6.272   6.747   5.527
21247SOL    HW167535   6.332   6.826   5.541
21247SOL    HW267536   6.186   6.778   5.486
21248SOL     OW67537   5.921   7.021   4.785
21248SOL    HW167538   5.843   6.990   4.732
21248SOL    HW267539   5.979   7.079   4.728
21249SOL     OW67540   7.046   7.091   5.063
21249SOL    HW167541   7.070   7.185   5.089
21249SOL    HW267542   7.030   7.037   5.145
21250SOL     OW67543   6.024   5.978   5.223
21250SOL    HW167544   6.106   5.922   5.232
21250SOL    HW267545   5.943   5.920   5.227
21251SOL     OW67546   7.189   6.033   4.461
21251SOL    HW167547   7.115   6.079   4.411
21251SOL    HW267548   7.240   6.101   4.514
21252SOL     OW67549   5.817   7.299   4.207
21252SOL    HW167550   5.851   7.376   4.261
21252SOL    HW267551   5.861   7.299   4.117
21253SOL     OW67552   6.713   6.927   5.414
21253SOL    HW167553   6.760   6.927   5.502
21253SOL    HW267554   6.665   6.840   5.403
21254SOL     OW67555   5.816   7.020   4.262
21254SOL    HW167556   5.790   7.116   4.262
21254SOL    HW267557   5.745   6.966   4.307
21255SOL     OW67558   5.826   6.677   4.610
21255SOL    HW167559   5.840   6.593   4.662
21255SOL    HW267560   5.771   6.741   4.665
21256SOL     OW67561   6.206   7.372   5.163
21256SOL    HW167562   6.114   7.355   5.198
21256SOL    HW267563   6.234   7.464   5.189
21257SOL     OW67564   6.192   6.550   3.847
21257SOL    HW167565   6.199   6.634   3.793
21257SOL    HW267566   6.238   6.563   3.935
21258SOL     OW67567   7.180   5.700   5.204
21258SOL    HW167568   7.162   5.767   5.132
21258SOL    HW267569   7.177   5.746   5.293
21259SOL     OW67570   5.708   6.229   4.287
21259SOL    HW167571   5.663   6.141   4.304
21259SOL    HW267572   5.707   6.283   4.371
21260SOL     OW67573   7.428   7.353   4.083
21260SOL    HW167574   7.482   7.324   4.163
21260SOL    HW267575   7.458   7.443   4.054
21261SOL     OW67576   5.613   7.182   3.841
21261SOL    HW167577   5.594   7.086   3.862
21261SOL    HW267578   5.580   7.240   3.916
21262SOL     OW67579   7.275   6.508   4.336
21262SOL    HW167580   7.370   6.479   4.344
21262SOL    HW267581   7.267   6.573   4.261
21263SOL     OW67582   7.227   6.694   4.156
21263SOL    HW167583   7.313   6.696   4.104
21263SOL    HW267584   7.241   6.741   4.244
21264SOL     OW67585   5.699   6.323   5.321
21264SOL    HW167586   5.787   6.310   5.366
21264SOL    HW267587   5.686   6.420   5.299
21265SOL     OW67588   6.199   6.951   4.450
21265SOL    HW167589   6.150   6.864   4.459
21265SOL    HW267590   6.176   6.994   4.363
21266SOL     OW67591   6.879   6.814   5.147
21266SOL    HW167592   6.916   6.741   5.089
21266SOL    HW267593   6.931   6.819   5.232
21267SOL     OW67594   6.395   5.590   4.226
21267SOL    HW167595   6.435   5.681   4.217
21267SOL    HW267596   6.295   5.598   4.232
21268SOL     OW67597   5.783   6.562   4.988
21268SOL    HW167598   5.872   6.517   4.974
21268SOL    HW267599   5.710   6.497   4.969
21269SOL     OW67600   7.111   6.585   3.914
21269SOL    HW167601   7.048   6.509   3.927
21269SOL    HW267602   7.159   6.603   4.000
21270SOL     OW67603   6.773   7.378   5.340
21270SOL    HW167604   6.797   7.438   5.264
21270SOL    HW267605   6.780   7.283   5.310
21271SOL     OW67606   5.903   5.837   5.525
21271SOL    HW167607   5.974   5.908   5.531
21271SOL    HW267608   5.815   5.876   5.553
21272SOL     OW67609   7.052   7.003   4.677
21272SOL    HW167610   6.993   7.009   4.757
21272SOL    HW267611   7.037   6.915   4.631
21273SOL     OW67612   7.253   7.300   4.296
21273SOL    HW167613   7.212   7.277   4.208
21273SOL    HW267614   7.235   7.226   4.361
21274SOL     OW67615   6.184   6.315   3.994
21274SOL    HW167616   6.208   6.384   3.926
21274SOL    HW267617   6.106   6.348   4.048
21275SOL     OW67618   6.867   5.931   4.668
21275SOL    HW167619   6.781   5.881   4.655
21275SOL    HW267620   6.929   5.877   4.724
21276SOL     OW67621   7.162   7.248   4.031
21276SOL    HW167622   7.251   7.294   4.034
21276SOL    HW267623   7.141   7.224   3.936
21277SOL     OW67624   6.393   6.191   5.189
21277SOL    HW167625   6.346   6.188   5.278
21277SOL    HW267626   6.342   6.136   5.123
21278SOL     OW67627   6.980   6.055   5.398
21278SOL    HW167628   6.960   6.098   5.486
21278SOL    HW267629   7.058   5.993   5.407
21279SOL     OW67630   6.559   6.476   5.296
21279SOL    HW167631   6.605   6.392   5.267
21279SOL    HW267632   6.503   6.510   5.221
21280SOL     OW67633   6.577   5.996   4.966
21280SOL    HW167634   6.500   6.030   5.020
21280SOL    HW267635   6.543   5.945   4.887
21281SOL     OW67636   6.627   6.287   4.153
21281SOL    HW167637   6.653   6.283   4.249
21281SOL    HW267638   6.542   6.236   4.139
21282SOL     OW67639   5.662   6.397   4.513
21282SOL    HW167640   5.761   6.385   4.522
21282SOL    HW267641   5.638   6.492   4.534
21283SOL     OW67642   5.716   7.407   5.295
21283SOL    HW167643   5.706   7.392   5.394
21283SOL    HW267644   5.630   7.443   5.259
21284SOL     OW67645   6.451   5.934   3.919
21284SOL    HW167646   6.510   5.997   3.870
21284SOL    HW267647   6.470   5.840   3.890
21285SOL     OW67648   7.305   6.171   5.555
21285SOL    HW167649   7.279   6.260   5.519
21285SOL    HW267650   7.303   6.103   5.482
21286SOL     OW67651   6.948   6.730   4.269
21286SOL    HW167652   7.031   6.701   4.221
21286SOL    HW267653   6.899   6.797   4.213
21287SOL     OW67654   6.136   5.782   4.609
21287SOL    HW167655   6.131   5.777   4.709
21287SOL    HW267656   6.138   5.878   4.580
21288SOL     OW67657   6.594   7.042   4.201
21288SOL    HW167658   6.548   7.114   4.149
21288SOL    HW267659   6.590   7.062   4.299
21289SOL     OW67660   5.937   7.387   4.577
21289SOL    HW167661   5.987   7.301   4.583
21289SOL    HW267662   6.002   7.464   4.574
21290SOL     OW67663   7.381   6.652   4.597
21290SOL    HW167664   7.319   6.637   4.521
21290SOL    HW267665   7.329   6.663   4.682
21291SOL     OW67666   6.813   7.136   5.230
21291SOL    HW167667   6.819   7.059   5.294
21291SOL    HW267668   6.761   7.110   5.150
21292SOL     OW67669   5.907   6.529   3.966
21292SOL    HW167670   5.989   6.568   3.924
21292SOL    HW267671   5.880   6.447   3.917
21293SOL     OW67672   7.044   6.321   4.452
21293SOL    HW167673   7.039   6.256   4.527
21293SOL    HW267674   7.124   6.380   4.465
21294SOL     OW67675   6.047   6.852   5.451
21294SOL    HW167676   5.997   6.853   5.365
21294SOL    HW267677   5.984   6.834   5.527
21295SOL     OW67678   6.697   7.362   3.961
21295SOL    HW167679   6.637   7.300   4.011
21295SOL    HW267680   6.728   7.318   3.876
21296SOL     OW67681   5.788   5.871   5.222
21296SOL    HW167682   5.708   5.931   5.209
21296SOL    HW267683   5.778   5.822   5.308
21297SOL     OW67684   7.218   6.963   3.805
21297SOL    HW167685   7.186   7.057   3.795
21297SOL    HW267686   7.142   6.900   3.793
21298SOL     OW67687   6.050   7.329   4.047
21298SOL    HW167688   6.083   7.368   4.133
21298SOL    HW267689   6.126   7.322   3.982
21299SOL     OW67690   6.986   5.693   4.150
21299SOL    HW167691   6.962   5.656   4.060
21299SOL    HW267692   7.085   5.709   4.154
21300SOL     OW67693   5.835   7.371   4.965
21300SOL    HW167694   5.892   7.306   5.015
21300SOL    HW267695   5.819   7.338   4.872
21301SOL     OW67696   6.526   7.284   4.628
21301SOL    HW167697   6.606   7.227   4.649
21301SOL    HW267698   6.477   7.244   4.551
21302SOL     OW67699   5.968   6.286   4.204
21302SOL    HW167700   6.013   6.196   4.201
21302SOL    HW267701   5.874   6.275   4.237
21303SOL     OW67702   7.133   5.808   5.453
21303SOL    HW167703   7.128   5.845   5.545
21303SOL    HW267704   7.061   5.739   5.441
21304SOL     OW67705   6.200   5.708   3.841
21304SOL    HW167706   6.298   5.686   3.848
21304SOL    HW267707   6.169   5.691   3.748
21305SOL     OW67708   6.367   5.850   5.473
21305SOL    HW167709   6.434   5.789   5.516
21305SOL    HW267710   6.294   5.869   5.538
21306SOL     OW67711   6.474   7.100   4.919
21306SOL    HW167712   6.451   7.075   4.825
21306SOL    HW267713   6.535   7.031   4.958
21307SOL     OW67714   6.937   6.176   5.157
21307SOL    HW167715   6.965   6.133   5.242
21307SOL    HW267716   6.962   6.272   5.158
21308SOL     OW67717   6.389   6.988   4.648
21308SOL    HW167718   6.479   7.002   4.606
21308SOL    HW267719   6.318   6.990   4.577
21309SOL     OW67720   6.508   6.089   4.623
21309SOL    HW167721   6.483   6.080   4.527
21309SOL    HW267722   6.556   6.007   4.654
21310SOL     OW67723   6.125   5.650   4.236
21310SOL    HW167724   6.044   5.651   4.294
21310SOL    HW267725   6.128   5.733   4.181
21311SOL     OW67726   7.020   6.774   3.765
21311SOL    HW167727   7.052   6.698   3.822
21311SOL    HW267728   6.928   6.801   3.795
21312SOL     OW67729   5.883   5.621   3.895
21312SOL    HW167730   5.932   5.705   3.874
21312SOL    HW267731   5.945   5.556   3.940
21313SOL     OW67732   6.521   5.822   4.204
21313SOL    HW167733   6.473   5.863   4.126
21313SOL    HW267734   6.620   5.820   4.185
21314SOL     OW67735   6.662   6.269   5.188
21314SOL    HW167736   6.582   6.208   5.191
21314SOL    HW267737   6.743   6.216   5.164
21315SOL     OW67738   6.813   7.156   4.517
21315SOL    HW167739   6.834   7.230   4.452
21315SOL    HW267740   6.881   7.156   4.590
21316SOL     OW67741   6.045   6.738   4.465
21316SOL    HW167742   5.974   6.711   4.530
21316SOL    HW267743   6.019   6.710   4.372
21317SOL     OW67744   6.857   7.383   4.315
21317SOL    HW167745   6.901   7.447   4.251
21317SOL    HW267746   6.807   7.435   4.385
21318SOL     OW67747   6.618   6.135   3.740
21318SOL    HW167748   6.577   6.217   3.701
21318SOL    HW267749   6.682   6.161   3.813
21319SOL     OW67750   5.664   6.142   5.110
21319SOL    HW167751   5.756   6.141   5.069
21319SOL    HW267752   5.658   6.216   5.177
21320SOL     OW67753   6.147   5.808   4.871
21320SOL    HW167754   6.185   5.724   4.908
21320SOL    HW267755   6.059   5.827   4.915
21321SOL     OW67756   6.452   6.040   4.366
21321SOL    HW167757   6.420   6.112   4.304
21321SOL    HW267758   6.476   5.959   4.313
21322SOL     OW67759   6.603   5.625   4.477
21322SOL    HW167760   6.531   5.630   4.408
21322SOL    HW267761   6.579   5.556   4.546
21323SOL     OW67762   7.015   6.759   4.591
21323SOL    HW167763   6.960   6.675   4.584
21323SOL    HW267764   7.041   6.788   4.499
21324SOL     OW67765   7.052   6.176   4.716
21324SOL    HW167766   7.022   6.081   4.723
21324SOL    HW267767   7.125   6.192   4.782
21325SOL     OW67768   7.443   6.419   4.101
21325SOL    HW167769   7.485   6.355   4.165
21325SOL    HW267770   7.405   6.368   4.023
21326SOL     OW67771   6.074   6.971   3.898
21326SOL    HW167772   5.987   6.956   3.945
21326SOL    HW267773   6.057   6.997   3.803
21327SOL     OW67774   7.250   6.866   4.381
21327SOL    HW167775   7.349   6.874   4.395
21327SOL    HW267776   7.205   6.950   4.412
21328SOL     OW67777   6.976   6.161   3.802
21328SOL    HW167778   6.922   6.140   3.883
21328SOL    HW267779   7.067   6.120   3.811
21329SOL     OW67780   6.113   5.842   4.052
21329SOL    HW167781   6.140   5.783   3.977
21329SOL    HW267782   6.113   5.937   4.021
21330SOL     OW67783   7.340   6.809   5.312
21330SOL    HW167784   7.431   6.770   5.299
21330SOL    HW267785   7.348   6.905   5.336
21331SOL     OW67786   6.650   6.933   5.064
21331SOL    HW167787   6.570   6.910   5.119
21331SOL    HW267788   6.733   6.907   5.113
21332SOL     OW67789   7.178   7.215   5.349
21332SOL    HW167790   7.205   7.249   5.259
21332SOL    HW267791   7.257   7.177   5.395
21333SOL     OW67792   6.697   6.781   4.824
21333SOL    HW167793   6.657   6.825   4.905
21333SOL    HW267794   6.656   6.818   4.741
21334SOL     OW67795   7.224   6.685   4.803
21334SOL    HW167796   7.229   6.766   4.862
21334SOL    HW267797   7.138   6.687   4.752
21335SOL     OW67798   6.501   5.675   5.126
21335SOL    HW167799   6.526   5.655   5.031
21335SOL    HW267800   6.573   5.731   5.168
21336SOL     OW67801   6.566   6.702   5.443
21336SOL    HW167802   6.467   6.708   5.453
21336SOL    HW267803   6.589   6.622   5.387
21337SOL     OW67804   6.291   6.636   4.092
21337SOL    HW167805   6.277   6.643   4.191
21337SOL    HW267806   6.375   6.585   4.074
21338SOL     OW67807   5.996   6.399   4.975
21338SOL    HW167808   6.082   6.411   5.025
21338SOL    HW267809   5.954   6.312   5.002
21339SOL     OW67810   6.860   5.972   4.986
21339SOL    HW167811   6.881   6.046   5.050
21339SOL    HW267812   6.771   5.989   4.943
21340SOL     OW67813   5.650   7.150   5.055
21340SOL    HW167814   5.604   7.232   5.021
21340SOL    HW267815   5.748   7.169   5.064
21341SOL     OW67816   5.953   6.686   4.225
21341SOL    HW167817   5.946   6.769   4.169
21341SOL    HW267818   5.957   6.606   4.165
21342SOL     OW67819   6.152   6.123   4.589
21342SOL    HW167820   6.164   6.189   4.515
21342SOL    HW267821   6.198   6.157   4.672
21343SOL     OW67822   6.838   6.934   4.112
21343SOL    HW167823   6.888   7.011   4.152
21343SOL    HW267824   6.743   6.936   4.144
21344SOL     OW67825   6.858   7.031   4.866
21344SOL    HW167826   6.905   7.044   4.953
21344SOL    HW267827   6.792   6.957   4.875
21345SOL     OW67828   7.168   6.225   4.196
21345SOL    HW167829   7.137   6.286   4.269
21345SOL    HW267830   7.218   6.277   4.127
21346SOL     OW67831   5.940   7.096   5.053
21346SOL    HW167832   5.919   7.052   4.966
21346SOL    HW267833   6.037   7.122   5.056
21347SOL     OW67834   5.988   6.337   5.322
21347SOL    HW167835   6.056   6.392   5.275
21347SOL    HW267836   6.028   6.249   5.349
21348SOL     OW67837   7.173   6.365   5.394
21348SOL    HW167838   7.081   6.403   5.389
21348SOL    HW267839   7.233   6.412   5.329
21349SOL     OW67840   6.599   5.691   5.494
21349SOL    HW167841   6.605   5.776   5.442
21349SOL    HW267842   6.631   5.615   5.437
21350SOL     OW67843   6.090   5.636   5.464
21350SOL    HW167844   6.048   5.579   5.394
21350SOL    HW267845   6.024   5.705   5.496
21351SOL     OW67846   6.159   6.456   4.753
21351SOL    HW167847   6.203   6.545   4.744
21351SOL    HW267848   6.096   6.456   4.830
21352SOL     OW67849   6.946   6.448   4.769
21352SOL    HW167850   6.871   6.448   4.703
21352SOL    HW267851   6.983   6.356   4.778
21353SOL     OW67852   6.795   6.111   3.999
21353SOL    HW167853   6.808   6.027   4.053
21353SOL    HW267854   6.766   6.185   4.059
21354SOL     OW67855   5.893   5.799   4.955
21354SOL    HW167856   5.870   5.836   5.045
21354SOL    HW267857   5.863   5.704   4.949
21355SOL     OW67858   5.623   6.896   5.006
21355SOL    HW167859   5.676   6.847   5.074
21355SOL    HW267860   5.645   6.994   5.011
21356SOL     OW67861   6.318   6.220   4.788
21356SOL    HW167862   6.377   6.194   4.712
21356SOL    HW267863   6.290   6.316   4.777
21357SOL     OW67864   7.314   6.521   5.578
21357SOL    HW167865   7.268   6.514   5.489
21357SOL    HW267866   7.252   6.565   5.644
21358SOL     OW67867   5.893   5.649   4.342
21358SOL    HW167868   5.882   5.743   4.375
21358SOL    HW267869   5.888   5.586   4.419
21359SOL     OW67870   7.208   5.953   4.098
21359SOL    HW167871   7.210   5.877   4.162
21359SOL    HW267872   7.160   6.030   4.138
21360SOL     OW67873   6.609   6.352   4.690
21360SOL    HW167874   6.624   6.373   4.786
21360SOL    HW267875   6.579   6.257   4.681
21361SOL     OW67876   6.566   7.159   5.424
21361SOL    HW167877   6.546   7.203   5.336
21361SOL    HW267878   6.605   7.068   5.408
21362SOL     OW67879   7.445   7.104   5.329
21362SOL    HW167880   7.459   7.131   5.234
21362SOL    HW267881   7.528   7.126   5.382
21363SOL     OW67882   5.936   6.484   5.528
21363SOL    HW167883   6.012   6.528   5.576
21363SOL    HW267884   5.971   6.437   5.446
21364SOL     OW67885   7.126   5.860   3.849
21364SOL    HW167886   7.065   5.785   3.872
21364SOL    HW267887   7.148   5.912   3.932
21365SOL     OW67888   6.889   6.424   3.766
21365SOL    HW167889   6.923   6.331   3.781
21365SOL    HW267890   6.907   6.451   3.671
21366SOL     OW67891   6.654   6.919   4.573
21366SOL    HW167892   6.661   6.835   4.518
21366SOL    HW267893   6.716   6.988   4.537
21367SOL     OW67894   5.905   6.396   4.673
21367SOL    HW167895   5.998   6.432   4.678
21367SOL    HW267896   5.899   6.311   4.725
21368SOL     OW67897   5.925   6.095   4.730
21368SOL    HW167898   5.873   6.012   4.713
21368SOL    HW267899   6.002   6.100   4.666
21369SOL     OW67900   6.724   5.966   5.402
21369SOL    HW167901   6.679   6.029   5.466
21369SOL    HW267902   6.817   5.997   5.385
21370SOL     OW67903   6.746   5.793   5.201
21370SOL    HW167904   6.746   5.857   5.278
21370SOL    HW267905   6.774   5.841   5.118
21371SOL     OW67906   5.594   6.912   3.924
21371SOL    HW167907   5.501   6.933   3.893
21371SOL    HW267908   5.604   6.813   3.937
21372SOL     OW67909   5.674   7.387   4.651
21372SOL    HW167910   5.632   7.301   4.624
21372SOL    HW267911   5.768   7.390   4.617
21373SOL     OW67912   6.090   7.154   4.634
21373SOL    HW167913   6.156   7.228   4.643
21373SOL    HW267914   6.134   7.075   4.592
21374SOL     OW67915   6.588   6.382   4.962
21374SOL    HW167916   6.629   6.350   5.048
21374SOL    HW267917   6.492   6.355   4.959
21375SOL     OW67918   5.626   6.130   4.838
21375SOL    HW167919   5.711   6.097   4.797
21375SOL    HW267920   5.639   6.145   4.936
21376SOL     OW67921   5.775   6.106   5.446
21376SOL    HW167922   5.834   6.066   5.376
21376SOL    HW267923   5.717   6.177   5.405
21377SOL     OW67924   6.955   6.536   5.384
21377SOL    HW167925   6.994   6.625   5.404
21377SOL    HW267926   6.965   6.516   5.287
21378SOL     OW67927   6.401   6.158   4.049
21378SOL    HW167928   6.408   6.069   4.003
21378SOL    HW267929   6.307   6.192   4.041
21379SOL     OW67930   7.243   6.190   4.930
21379SOL    HW167931   7.205   6.121   4.992
21379SOL    HW267932   7.325   6.154   4.886
21380SOL     OW67933   5.838   7.150   5.468
21380SOL    HW167934   5.808   7.207   5.544
21380SOL    HW267935   5.831   7.053   5.494
21381SOL     OW67936   6.257   6.050   4.993
21381SOL    HW167937   6.223   5.961   4.963
21381SOL    HW267938   6.283   6.104   4.913
21382SOL     OW67939   6.516   7.264   5.189
21382SOL    HW167940   6.492   7.246   5.094
21382SOL    HW267941   6.546   7.358   5.199
21383SOL     OW67942   6.059   6.086   3.915
21383SOL    HW167943   6.120   6.166   3.919
21383SOL    HW267944   5.964   6.117   3.922
21384SOL     OW67945   5.745   6.723   5.190
21384SOL    HW167946   5.767   6.662   5.266
21384SOL    HW267947   5.755   6.674   5.104
21385SOL     OW67948   6.933   6.645   4.958
21385SOL    HW167949   6.957   6.582   4.884
21385SOL    HW267950   6.843   6.685   4.940
21386SOL     OW67951   6.888   6.441   4.033
21386SOL    HW167952   6.802   6.410   4.075
21386SOL    HW267953   6.884   6.427   3.934
21387SOL     OW67954   7.345   7.333   4.878
21387SOL    HW167955   7.406   7.363   4.805
21387SOL    HW267956   7.307   7.244   4.856
21388SOL     OW67957   6.838   7.317   4.852
21388SOL    HW167958   6.922   7.322   4.798
21388SOL    HW267959   6.815   7.221   4.870
21389SOL     OW67960   5.669   6.844   4.746
21389SOL    HW167961   5.664   6.843   4.846
21389SOL    HW267962   5.586   6.803   4.708
21390SOL     OW67963   6.274   7.248   5.440
21390SOL    HW167964   6.218   7.329   5.449
21390SOL    HW267965   6.326   7.252   5.354
21391SOL     OW67966   7.312   5.721   4.247
21391SOL    HW167967   7.385   5.704   4.180
21391SOL    HW267968   7.281   5.634   4.285
21392SOL     OW67969   6.974   7.159   4.201
21392SOL    HW167970   7.041   7.171   4.127
21392SOL    HW267971   6.934   7.248   4.224
21393SOL     OW67972   5.716   7.380   5.575
21393SOL    HW167973   5.675   7.306   5.628
21393SOL    HW267974   5.780   7.431   5.633
21394SOL     OW67975   6.866   6.513   4.396
21394SOL    HW167976   6.926   6.432   4.398
21394SOL    HW267977   6.906   6.582   4.336
21395SOL     OW67978   6.416   6.859   5.146
21395SOL    HW167979   6.411   6.892   5.241
21395SOL    HW267980   6.330   6.878   5.100
21396SOL     OW67981   6.258   7.202   3.878
21396SOL    HW167982   6.267   7.212   3.779
21396SOL    HW267983   6.218   7.113   3.899
21397SOL     OW67984   7.236   7.306   5.118
21397SOL    HW167985   7.289   7.316   5.034
21397SOL    HW267986   7.209   7.396   5.152
21398SOL     OW67987   7.427   5.761   4.687
21398SOL    HW167988   7.466   5.676   4.651
21398SOL    HW267989   7.329   5.763   4.668
21399SOL     OW67990   5.849   5.912   4.444
21399SOL    HW167991   5.770   5.963   4.410
21399SOL    HW267992   5.840   5.897   4.542
21400SOL     OW67993   6.780   7.198   3.755
21400SOL    HW167994   6.786   7.105   3.792
21400SOL    HW267995   6.721   7.198   3.675
21401SOL     OW67996   6.408   6.588   5.096
21401SOL    HW167997   6.448   6.587   5.004
21401SOL    HW267998   6.418   6.680   5.136
21402SOL     OW67999   6.502   6.496   4.015
21402SOL    HW168000   6.565   6.534   3.947
21402SOL    HW268001   6.542   6.413   4.054
21403SOL     OW68002   7.090   7.193   3.768
21403SOL    HW168003   6.998   7.230   3.775
21403SOL    HW268004   7.128   7.213   3.678
21404SOL     OW68005   5.958   6.874   5.214
21404SOL    HW168006   5.945   6.967   5.180
21404SOL    HW268007   5.874   6.822   5.201
21405SOL     OW68008   7.200   6.878   5.013
21405SOL    HW168009   7.260   6.881   5.093
21405SOL    HW268010   7.125   6.942   5.026
21406SOL     OW68011   6.625   6.684   4.420
21406SOL    HW168012   6.555   6.637   4.474
21406SOL    HW268013   6.684   6.616   4.377
21407SOL     OW68014   6.600   5.822   4.695
21407SOL    HW168015   6.592   5.786   4.602
21407SOL    HW268016   6.598   5.746   4.760
21408SOL     OW68017   6.176   7.073   4.215
21408SOL    HW168018   6.218   7.015   4.145
21408SOL    HW268019   6.132   7.152   4.171
21409SOL     OW68020   7.295   5.971   5.105
21409SOL    HW168021   7.368   6.040   5.109
21409SOL    HW268022   7.323   5.896   5.046
21410SOL     OW68023   5.841   6.934   4.014
21410SOL    HW168024   5.745   6.935   3.987
21410SOL    HW268025   5.853   6.987   4.098
21411SOL     OW68026   5.691   6.599   5.450
21411SOL    HW168027   5.614   6.566   5.504
21411SOL    HW268028   5.776   6.569   5.492
21412SOL     OW68029   6.258   5.789   5.213
21412SOL    HW168030   6.348   5.773   5.173
21412SOL    HW268031   6.266   5.794   5.312
21413SOL     OW68032   5.661   5.931   3.757
21413SOL    HW168033   5.569   5.903   3.728
21413SOL    HW268034   5.692   6.008   3.701
21414SOL     OW68035   7.026   6.442   5.122
21414SOL    HW168036   6.969   6.494   5.059
21414SOL    HW268037   7.122   6.454   5.098
21415SOL     OW68038   5.658   5.752   4.042
21415SOL    HW168039   5.641   5.835   3.988
21415SOL    HW268040   5.748   5.715   4.020
21416SOL     OW68041   6.769   6.921   3.843
21416SOL    HW168042   6.670   6.910   3.845
21416SOL    HW268043   6.803   6.936   3.936
21417SOL     OW68044   6.199   6.428   5.155
21417SOL    HW168045   6.255   6.509   5.138
21417SOL    HW268046   6.258   6.348   5.158
21418SOL     OW68047   7.079   7.353   4.683
21418SOL    HW168048   7.112   7.417   4.614
21418SOL    HW268049   7.145   7.347   4.758
21419SOL     OW68050   6.302   6.151   5.432
21419SOL    HW168051   6.321   6.216   5.506
21419SOL    HW268052   6.362   6.071   5.441
21420SOL     OW68053   7.036   6.806   5.357
21420SOL    HW168054   7.027   6.796   5.456
21420SOL    HW268055   7.132   6.799   5.331
21421SOL     OW68056   5.976   7.327   5.284
21421SOL    HW168057   5.885   7.368   5.282
21421SOL    HW268058   5.969   7.233   5.316
21422SOL     OW68059   7.260   6.469   4.978
21422SOL    HW168060   7.233   6.380   4.941
21422SOL    HW268061   7.261   6.537   4.905
21423SOL     OW68062   6.811   5.911   4.173
21423SOL    HW168063   6.876   5.837   4.162
21423SOL    HW268064   6.831   5.961   4.257
21424SOL     OW68065   6.180   6.331   4.376
21424SOL    HW168066   6.230   6.416   4.357
21424SOL    HW268067   6.092   6.333   4.328
21425SOL     OW68068   7.363   5.928   5.366
21425SOL    HW168069   7.346   5.959   5.272
21425SOL    HW268070   7.279   5.891   5.404
21426SOL     OW68071   7.316   6.520   5.241
21426SOL    HW168072   7.354   6.611   5.256
21426SOL    HW268073   7.308   6.503   5.142
21427SOL     OW68074   6.445   6.960   3.740
21427SOL    HW168075   6.399   6.975   3.828
21427SOL    HW268076   6.489   7.045   3.710
21428SOL     OW68077   6.247   7.376   4.677
21428SOL    HW168078   6.201   7.464   4.664
21428SOL    HW268079   6.346   7.388   4.670
21429SOL     OW68080   6.445   6.542   4.585
21429SOL    HW168081   6.499   6.473   4.633
21429SOL    HW268082   6.413   6.611   4.651
21430SOL     OW68083   6.669   6.570   3.811
21430SOL    HW168084   6.646   6.623   3.729
21430SOL    HW268085   6.750   6.514   3.792
21431SOL     OW68086   7.447   7.155   4.575
21431SOL    HW168087   7.376   7.143   4.505
21431SOL    HW268088   7.448   7.076   4.635
21432SOL     OW68089   5.807   6.900   5.568
21432SOL    HW168090   5.742   6.827   5.547
21432SOL    HW268091   5.811   6.914   5.666
21433SOL     OW68092   5.665   6.826   4.377
21433SOL    HW168093   5.664   6.779   4.465
21433SOL    HW268094   5.747   6.798   4.326
21434SOL     OW68095   6.258   6.977   5.348
21434SOL    HW168096   6.180   6.927   5.386
21434SOL    HW268097   6.255   7.072   5.379
21435SOL     OW68098   7.410   5.778   4.951
21435SOL    HW168099   7.406   5.688   4.995
21435SOL    HW268100   7.413   5.767   4.852
21436SOL     OW68101   6.014   6.010   4.244
21436SOL    HW168102   6.044   5.938   4.182
21436SOL    HW268103   5.975   5.970   4.327
21437SOL     OW68104   7.291   7.073   4.828
21437SOL    HW168105   7.198   7.048   4.801
21437SOL    HW268106   7.317   7.023   4.910
21438SOL     OW68107   5.903   6.133   5.004
21438SOL    HW168108   5.941   6.074   5.076
21438SOL    HW268109   5.943   6.107   4.916
21439SOL     OW68110   6.398   7.172   4.411
21439SOL    HW168111   6.430   7.182   4.317
21439SOL    HW268112   6.319   7.110   4.413
21440SOL     OW68113   7.010   5.800   4.836
21440SOL    HW168114   7.062   5.735   4.891
21440SOL    HW268115   6.961   5.863   4.897
21441SOL     OW68116   6.587   5.620   4.878
21441SOL    HW168117   6.524   5.548   4.847
21441SOL    HW268118   6.680   5.584   4.878
21442SOL     OW68119   6.356   6.916   4.025
21442SOL    HW168120   6.310   6.829   4.042
21442SOL    HW268121   6.447   6.913   4.066
21443SOL     OW68122   6.204   7.153   5.008
21443SOL    HW168123   6.199   7.235   5.065
21443SOL    HW268124   6.293   7.150   4.963
21444SOL     OW68125   6.938   5.638   3.892
21444SOL    HW168126   6.973   5.597   3.808
21444SOL    HW268127   6.848   5.600   3.912
21445SOL     OW68128   6.886   6.039   4.415
21445SOL    HW168129   6.827   6.119   4.419
21445SOL    HW268130   6.901   6.004   4.508
21446SOL     OW68131   7.179   5.807   4.606
21446SOL    HW168132   7.095   5.806   4.660
21446SOL    HW268133   7.181   5.890   4.550
21447SOL     OW68134   5.625   6.663   4.024
21447SOL    HW168135   5.724   6.652   4.015
21447SOL    HW268136   5.585   6.577   4.056
21448SOL     OW68137   6.461   7.232   4.061
21448SOL    HW168138   6.384   7.197   4.007
21448SOL    HW268139   6.429   7.303   4.123
21449SOL     OW68140   5.816   6.214   5.699
21449SOL    HW168141   5.723   6.212   5.736
21449SOL    HW268142   5.817   6.175   5.607
21450SOL     OW68143   5.811   5.861   6.582
21450SOL    HW168144   5.846   5.844   6.674
21450SOL    HW268145   5.723   5.816   6.570
21451SOL     OW68146   5.605   5.954   6.233
21451SOL    HW168147   5.523   5.997   6.272
21451SOL    HW268148   5.577   5.881   6.170
21452SOL     OW68149   6.155   6.861   6.751
21452SOL    HW168150   6.062   6.854   6.714
21452SOL    HW268151   6.166   6.950   6.795
21453SOL     OW68152   7.141   7.097   6.289
21453SOL    HW168153   7.084   7.081   6.370
21453SOL    HW268154   7.082   7.107   6.209
21454SOL     OW68155   6.721   6.289   6.303
21454SOL    HW168156   6.778   6.367   6.278
21454SOL    HW268157   6.661   6.315   6.379
21455SOL     OW68158   7.341   6.193   5.817
21455SOL    HW168159   7.329   6.180   5.718
21455SOL    HW268160   7.311   6.112   5.866
21456SOL     OW68161   6.354   6.730   6.609
21456SOL    HW168162   6.276   6.747   6.669
21456SOL    HW268163   6.388   6.817   6.573
21457SOL     OW68164   6.436   6.384   7.409
21457SOL    HW168165   6.432   6.460   7.474
21457SOL    HW268166   6.458   6.420   7.318
21458SOL     OW68167   6.271   6.598   6.251
21458SOL    HW168168   6.340   6.582   6.321
21458SOL    HW268169   6.198   6.655   6.289
21459SOL     OW68170   6.272   6.747   7.389
21459SOL    HW168171   6.332   6.826   7.403
21459SOL    HW268172   6.186   6.778   7.348
21460SOL     OW68173   5.921   7.021   6.647
21460SOL    HW168174   5.843   6.990   6.594
21460SOL    HW268175   5.979   7.079   6.590
21461SOL     OW68176   7.046   7.091   6.925
21461SOL    HW168177   7.070   7.185   6.951
21461SOL    HW268178   7.030   7.037   7.007
21462SOL     OW68179   6.024   5.978   7.085
21462SOL    HW168180   6.106   5.922   7.094
21462SOL    HW268181   5.943   5.920   7.089
21463SOL     OW68182   7.189   6.033   6.323
21463SOL    HW168183   7.115   6.079   6.273
21463SOL    HW268184   7.240   6.101   6.376
21464SOL     OW68185   5.817   7.299   6.069
21464SOL    HW168186   5.851   7.376   6.123
21464SOL    HW268187   5.861   7.299   5.979
21465SOL     OW68188   6.713   6.927   7.276
21465SOL    HW168189   6.760   6.927   7.364
21465SOL    HW268190   6.665   6.840   7.265
21466SOL     OW68191   5.816   7.020   6.124
21466SOL    HW168192   5.790   7.116   6.124
21466SOL    HW268193   5.745   6.966   6.169
21467SOL     OW68194   5.826   6.677   6.472
21467SOL    HW168195   5.840   6.593   6.524
21467SOL    HW268196   5.771   6.741   6.527
21468SOL     OW68197   6.206   7.372   7.025
21468SOL    HW168198   6.114   7.355   7.060
21468SOL    HW268199   6.234   7.464   7.051
21469SOL     OW68200   6.192   6.550   5.709
21469SOL    HW168201   6.199   6.634   5.655
21469SOL    HW268202   6.238   6.563   5.797
21470SOL     OW68203   7.180   5.700   7.066
21470SOL    HW168204   7.162   5.767   6.994
21470SOL    HW268205   7.177   5.746   7.155
21471SOL     OW68206   5.708   6.229   6.149
21471SOL    HW168207   5.663   6.141   6.166
21471SOL    HW268208   5.707   6.283   6.233
21472SOL     OW68209   7.428   7.353   5.945
21472SOL    HW168210   7.482   7.324   6.025
21472SOL    HW268211   7.458   7.443   5.916
21473SOL     OW68212   5.613   7.182   5.703
21473SOL    HW168213   5.594   7.086   5.724
21473SOL    HW268214   5.580   7.240   5.778
21474SOL     OW68215   7.275   6.508   6.198
21474SOL    HW168216   7.370   6.479   6.206
21474SOL    HW268217   7.267   6.573   6.123
21475SOL     OW68218   7.227   6.694   6.018
21475SOL    HW168219   7.313   6.696   5.966
21475SOL    HW268220   7.241   6.741   6.106
21476SOL     OW68221   5.699   6.323   7.183
21476SOL    HW168222   5.787   6.310   7.228
21476SOL    HW268223   5.686   6.420   7.161
21477SOL     OW68224   6.199   6.951   6.312
21477SOL    HW168225   6.150   6.864   6.321
21477SOL    HW268226   6.176   6.994   6.225
21478SOL     OW68227   6.879   6.814   7.009
21478SOL    HW168228   6.916   6.741   6.951
21478SOL    HW268229   6.931   6.819   7.094
21479SOL     OW68230   6.395   5.590   6.088
21479SOL    HW168231   6.435   5.681   6.079
21479SOL    HW268232   6.295   5.598   6.094
21480SOL     OW68233   5.783   6.562   6.850
21480SOL    HW168234   5.872   6.517   6.836
21480SOL    HW268235   5.710   6.497   6.831
21481SOL     OW68236   7.111   6.585   5.776
21481SOL    HW168237   7.048   6.509   5.789
21481SOL    HW268238   7.159   6.603   5.862
21482SOL     OW68239   6.773   7.378   7.202
21482SOL    HW168240   6.797   7.438   7.126
21482SOL    HW268241   6.780   7.283   7.172
21483SOL     OW68242   5.903   5.837   7.387
21483SOL    HW168243   5.974   5.908   7.393
21483SOL    HW268244   5.815   5.876   7.415
21484SOL     OW68245   7.052   7.003   6.539
21484SOL    HW168246   6.993   7.009   6.619
21484SOL    HW268247   7.037   6.915   6.493
21485SOL     OW68248   7.253   7.300   6.158
21485SOL    HW168249   7.212   7.277   6.070
21485SOL    HW268250   7.235   7.226   6.223
21486SOL     OW68251   6.184   6.315   5.856
21486SOL    HW168252   6.208   6.384   5.788
21486SOL    HW268253   6.106   6.348   5.910
21487SOL     OW68254   6.867   5.931   6.530
21487SOL    HW168255   6.781   5.881   6.517
21487SOL    HW268256   6.929   5.877   6.586
21488SOL     OW68257   7.162   7.248   5.893
21488SOL    HW168258   7.251   7.294   5.896
21488SOL    HW268259   7.141   7.224   5.798
21489SOL     OW68260   6.393   6.191   7.051
21489SOL    HW168261   6.346   6.188   7.140
21489SOL    HW268262   6.342   6.136   6.985
21490SOL     OW68263   6.980   6.055   7.260
21490SOL    HW168264   6.960   6.098   7.348
21490SOL    HW268265   7.058   5.993   7.269
21491SOL     OW68266   6.559   6.476   7.158
21491SOL    HW168267   6.605   6.392   7.129
21491SOL    HW268268   6.503   6.510   7.083
21492SOL     OW68269   6.577   5.996   6.828
21492SOL    HW168270   6.500   6.030   6.882
21492SOL    HW268271   6.543   5.945   6.749
21493SOL     OW68272   6.627   6.287   6.015
21493SOL    HW168273   6.653   6.283   6.111
21493SOL    HW268274   6.542   6.236   6.001
21494SOL     OW68275   5.662   6.397   6.375
21494SOL    HW168276   5.761   6.385   6.384
21494SOL    HW268277   5.638   6.492   6.396
21495SOL     OW68278   5.716   7.407   7.157
21495SOL    HW168279   5.706   7.392   7.256
21495SOL    HW268280   5.630   7.443   7.121
21496SOL     OW68281   6.451   5.934   5.781
21496SOL    HW168282   6.510   5.997   5.732
21496SOL    HW268283   6.470   5.840   5.752
21497SOL     OW68284   7.305   6.171   7.417
21497SOL    HW168285   7.279   6.260   7.381
21497SOL    HW268286   7.303   6.103   7.344
21498SOL     OW68287   6.948   6.730   6.131
21498SOL    HW168288   7.031   6.701   6.083
21498SOL    HW268289   6.899   6.797   6.075
21499SOL     OW68290   6.136   5.782   6.471
21499SOL    HW168291   6.131   5.777   6.571
21499SOL    HW268292   6.138   5.878   6.442
21500SOL     OW68293   6.594   7.042   6.063
21500SOL    HW168294   6.548   7.114   6.011
21500SOL    HW268295   6.590   7.062   6.161
21501SOL     OW68296   5.937   7.387   6.439
21501SOL    HW168297   5.987   7.301   6.445
21501SOL    HW268298   6.002   7.464   6.436
21502SOL     OW68299   7.381   6.652   6.459
21502SOL    HW168300   7.319   6.637   6.383
21502SOL    HW268301   7.329   6.663   6.544
21503SOL     OW68302   6.813   7.136   7.092
21503SOL    HW168303   6.819   7.059   7.156
21503SOL    HW268304   6.761   7.110   7.012
21504SOL     OW68305   5.907   6.529   5.828
21504SOL    HW168306   5.989   6.568   5.786
21504SOL    HW268307   5.880   6.447   5.779
21505SOL     OW68308   7.044   6.321   6.314
21505SOL    HW168309   7.039   6.256   6.389
21505SOL    HW268310   7.124   6.380   6.327
21506SOL     OW68311   6.047   6.852   7.313
21506SOL    HW168312   5.997   6.853   7.227
21506SOL    HW268313   5.984   6.834   7.389
21507SOL     OW68314   6.697   7.362   5.823
21507SOL    HW168315   6.637   7.300   5.873
21507SOL    HW268316   6.728   7.318   5.738
21508SOL     OW68317   5.788   5.871   7.084
21508SOL    HW168318   5.708   5.931   7.071
21508SOL    HW268319   5.778   5.822   7.170
21509SOL     OW68320   7.218   6.963   5.667
21509SOL    HW168321   7.186   7.057   5.657
21509SOL    HW268322   7.142   6.900   5.655
21510SOL     OW68323   6.050   7.329   5.909
21510SOL    HW168324   6.083   7.368   5.995
21510SOL    HW268325   6.126   7.322   5.844
21511SOL     OW68326   6.986   5.693   6.012
21511SOL    HW168327   6.962   5.656   5.922
21511SOL    HW268328   7.085   5.709   6.016
21512SOL     OW68329   5.835   7.371   6.827
21512SOL    HW168330   5.892   7.306   6.877
21512SOL    HW268331   5.819   7.338   6.734
21513SOL     OW68332   6.526   7.284   6.490
21513SOL    HW168333   6.606   7.227   6.511
21513SOL    HW268334   6.477   7.244   6.413
21514SOL     OW68335   5.968   6.286   6.066
21514SOL    HW168336   6.013   6.196   6.063
21514SOL    HW268337   5.874   6.275   6.099
21515SOL     OW68338   7.133   5.808   7.315
21515SOL    HW168339   7.128   5.845   7.407
21515SOL    HW268340   7.061   5.739   7.303
21516SOL     OW68341   6.200   5.708   5.703
21516SOL    HW168342   6.298   5.686   5.710
21516SOL    HW268343   6.169   5.691   5.610
21517SOL     OW68344   6.367   5.850   7.335
21517SOL    HW168345   6.434   5.789   7.378
21517SOL    HW268346   6.294   5.869   7.400
21518SOL     OW68347   6.474   7.100   6.781
21518SOL    HW168348   6.451   7.075   6.687
21518SOL    HW268349   6.535   7.031   6.820
21519SOL     OW68350   6.937   6.176   7.019
21519SOL    HW168351   6.965   6.133   7.104
21519SOL    HW268352   6.962   6.272   7.020
21520SOL     OW68353   6.389   6.988   6.510
21520SOL    HW168354   6.479   7.002   6.468
21520SOL    HW268355   6.318   6.990   6.439
21521SOL     OW68356   6.508   6.089   6.485
21521SOL    HW168357   6.483   6.080   6.389
21521SOL    HW268358   6.556   6.007   6.516
21522SOL     OW68359   6.125   5.650   6.098
21522SOL    HW168360   6.044   5.651   6.156
21522SOL    HW268361   6.128   5.733   6.043
21523SOL     OW68362   7.020   6.774   5.627
21523SOL    HW168363   7.052   6.698   5.684
21523SOL    HW268364   6.928   6.801   5.657
21524SOL     OW68365   5.883   5.621   5.757
21524SOL    HW168366   5.932   5.705   5.736
21524SOL    HW268367   5.945   5.556   5.802
21525SOL     OW68368   6.521   5.822   6.066
21525SOL    HW168369   6.473   5.863   5.988
21525SOL    HW268370   6.620   5.820   6.047
21526SOL     OW68371   6.662   6.269   7.050
21526SOL    HW168372   6.582   6.208   7.053
21526SOL    HW268373   6.743   6.216   7.026
21527SOL     OW68374   6.813   7.156   6.379
21527SOL    HW168375   6.834   7.230   6.314
21527SOL    HW268376   6.881   7.156   6.452
21528SOL     OW68377   6.045   6.738   6.327
21528SOL    HW168378   5.974   6.711   6.392
21528SOL    HW268379   6.019   6.710   6.234
21529SOL     OW68380   6.857   7.383   6.177
21529SOL    HW168381   6.901   7.447   6.113
21529SOL    HW268382   6.807   7.435   6.247
21530SOL     OW68383   6.618   6.135   5.602
21530SOL    HW168384   6.577   6.217   5.563
21530SOL    HW268385   6.682   6.161   5.675
21531SOL     OW68386   5.664   6.142   6.972
21531SOL    HW168387   5.756   6.141   6.931
21531SOL    HW268388   5.658   6.216   7.039
21532SOL     OW68389   6.147   5.808   6.733
21532SOL    HW168390   6.185   5.724   6.770
21532SOL    HW268391   6.059   5.827   6.777
21533SOL     OW68392   6.452   6.040   6.228
21533SOL    HW168393   6.420   6.112   6.166
21533SOL    HW268394   6.476   5.959   6.175
21534SOL     OW68395   6.603   5.625   6.339
21534SOL    HW168396   6.531   5.630   6.270
21534SOL    HW268397   6.579   5.556   6.408
21535SOL     OW68398   7.015   6.759   6.453
21535SOL    HW168399   6.960   6.675   6.446
21535SOL    HW268400   7.041   6.788   6.361
21536SOL     OW68401   7.052   6.176   6.578
21536SOL    HW168402   7.022   6.081   6.585
21536SOL    HW268403   7.125   6.192   6.644
21537SOL     OW68404   7.443   6.419   5.963
21537SOL    HW168405   7.485   6.355   6.027
21537SOL    HW268406   7.405   6.368   5.885
21538SOL     OW68407   6.074   6.971   5.760
21538SOL    HW168408   5.987   6.956   5.807
21538SOL    HW268409   6.057   6.997   5.665
21539SOL     OW68410   7.250   6.866   6.243
21539SOL    HW168411   7.349   6.874   6.257
21539SOL    HW268412   7.205   6.950   6.274
21540SOL     OW68413   6.976   6.161   5.664
21540SOL    HW168414   6.922   6.140   5.745
21540SOL    HW268415   7.067   6.120   5.673
21541SOL     OW68416   6.113   5.842   5.914
21541SOL    HW168417   6.140   5.783   5.839
21541SOL    HW268418   6.113   5.937   5.883
21542SOL     OW68419   7.340   6.809   7.174
21542SOL    HW168420   7.431   6.770   7.161
21542SOL    HW268421   7.348   6.905   7.198
21543SOL     OW68422   6.650   6.933   6.926
21543SOL    HW168423   6.570   6.910   6.981
21543SOL    HW268424   6.733   6.907   6.975
21544SOL     OW68425   7.178   7.215   7.211
21544SOL    HW168426   7.205   7.249   7.121
21544SOL    HW268427   7.257   7.177   7.257
21545SOL     OW68428   6.697   6.781   6.686
21545SOL    HW168429   6.657   6.825   6.767
21545SOL    HW268430   6.656   6.818   6.603
21546SOL     OW68431   7.224   6.685   6.665
21546SOL    HW168432   7.229   6.766   6.724
21546SOL    HW268433   7.138   6.687   6.614
21547SOL     OW68434   6.501   5.675   6.988
21547SOL    HW168435   6.526   5.655   6.893
21547SOL    HW268436   6.573   5.731   7.030
21548SOL     OW68437   6.566   6.702   7.305
21548SOL    HW168438   6.467   6.708   7.315
21548SOL    HW268439   6.589   6.622   7.249
21549SOL     OW68440   6.291   6.636   5.954
21549SOL    HW168441   6.277   6.643   6.053
21549SOL    HW268442   6.375   6.585   5.936
21550SOL     OW68443   5.996   6.399   6.837
21550SOL    HW168444   6.082   6.411   6.887
21550SOL    HW268445   5.954   6.312   6.864
21551SOL     OW68446   6.860   5.972   6.848
21551SOL    HW168447   6.881   6.046   6.912
21551SOL    HW268448   6.771   5.989   6.805
21552SOL     OW68449   5.650   7.150   6.917
21552SOL    HW168450   5.604   7.232   6.883
21552SOL    HW268451   5.748   7.169   6.926
21553SOL     OW68452   5.953   6.686   6.087
21553SOL    HW168453   5.946   6.769   6.031
21553SOL    HW268454   5.957   6.606   6.027
21554SOL     OW68455   6.152   6.123   6.451
21554SOL    HW168456   6.164   6.189   6.377
21554SOL    HW268457   6.198   6.157   6.534
21555SOL     OW68458   6.838   6.934   5.974
21555SOL    HW168459   6.888   7.011   6.014
21555SOL    HW268460   6.743   6.936   6.006
21556SOL     OW68461   6.858   7.031   6.728
21556SOL    HW168462   6.905   7.044   6.815
21556SOL    HW268463   6.792   6.957   6.737
21557SOL     OW68464   7.168   6.225   6.058
21557SOL    HW168465   7.137   6.286   6.131
21557SOL    HW268466   7.218   6.277   5.989
21558SOL     OW68467   5.940   7.096   6.915
21558SOL    HW168468   5.919   7.052   6.828
21558SOL    HW268469   6.037   7.122   6.918
21559SOL     OW68470   5.988   6.337   7.184
21559SOL    HW168471   6.056   6.392   7.137
21559SOL    HW268472   6.028   6.249   7.211
21560SOL     OW68473   7.173   6.365   7.256
21560SOL    HW168474   7.081   6.403   7.251
21560SOL    HW268475   7.233   6.412   7.191
21561SOL     OW68476   6.599   5.691   7.356
21561SOL    HW168477   6.605   5.776   7.304
21561SOL    HW268478   6.631   5.615   7.299
21562SOL     OW68479   6.090   5.636   7.326
21562SOL    HW168480   6.048   5.579   7.256
21562SOL    HW268481   6.024   5.705   7.358
21563SOL     OW68482   6.159   6.456   6.615
21563SOL    HW168483   6.203   6.545   6.606
21563SOL    HW268484   6.096   6.456   6.692
21564SOL     OW68485   6.946   6.448   6.631
21564SOL    HW168486   6.871   6.448   6.565
21564SOL    HW268487   6.983   6.356   6.640
21565SOL     OW68488   6.795   6.111   5.861
21565SOL    HW168489   6.808   6.027   5.915
21565SOL    HW268490   6.766   6.185   5.921
21566SOL     OW68491   5.893   5.799   6.817
21566SOL    HW168492   5.870   5.836   6.907
21566SOL    HW268493   5.863   5.704   6.811
21567SOL     OW68494   5.623   6.896   6.868
21567SOL    HW168495   5.676   6.847   6.936
21567SOL    HW268496   5.645   6.994   6.873
21568SOL     OW68497   6.318   6.220   6.650
21568SOL    HW168498   6.377   6.194   6.574
21568SOL    HW268499   6.290   6.316   6.639
21569SOL     OW68500   7.314   6.521   7.440
21569SOL    HW168501   7.268   6.514   7.351
21569SOL    HW268502   7.252   6.565   7.506
21570SOL     OW68503   5.893   5.649   6.204
21570SOL    HW168504   5.882   5.743   6.237
21570SOL    HW268505   5.888   5.586   6.281
21571SOL     OW68506   7.208   5.953   5.960
21571SOL    HW168507   7.210   5.877   6.024
21571SOL    HW268508   7.160   6.030   6.000
21572SOL     OW68509   6.609   6.352   6.552
21572SOL    HW168510   6.624   6.373   6.648
21572SOL    HW268511   6.579   6.257   6.543
21573SOL     OW68512   6.566   7.159   7.286
21573SOL    HW168513   6.546   7.203   7.198
21573SOL    HW268514   6.605   7.068   7.270
21574SOL     OW68515   7.445   7.104   7.191
21574SOL    HW168516   7.459   7.131   7.096
21574SOL    HW268517   7.528   7.126   7.244
21575SOL     OW68518   5.936   6.484   7.390
21575SOL    HW168519   6.012   6.528   7.438
21575SOL    HW268520   5.971   6.437   7.308
21576SOL     OW68521   7.126   5.860   5.711
21576SOL    HW168522   7.065   5.785   5.734
21576SOL    HW268523   7.148   5.912   5.794
21577SOL     OW68524   6.889   6.424   5.628
21577SOL    HW168525   6.923   6.331   5.643
21577SOL    HW268526   6.907   6.451   5.533
21578SOL     OW68527   6.654   6.919   6.435
21578SOL    HW168528   6.661   6.835   6.380
21578SOL    HW268529   6.716   6.988   6.399
21579SOL     OW68530   5.905   6.396   6.535
21579SOL    HW168531   5.998   6.432   6.540
21579SOL    HW268532   5.899   6.311   6.587
21580SOL     OW68533   5.925   6.095   6.592
21580SOL    HW168534   5.873   6.012   6.575
21580SOL    HW268535   6.002   6.100   6.528
21581SOL     OW68536   6.724   5.966   7.264
21581SOL    HW168537   6.679   6.029   7.328
21581SOL    HW268538   6.817   5.997   7.247
21582SOL     OW68539   6.746   5.793   7.063
21582SOL    HW168540   6.746   5.857   7.140
21582SOL    HW268541   6.774   5.841   6.980
21583SOL     OW68542   5.594   6.912   5.786
21583SOL    HW168543   5.501   6.933   5.755
21583SOL    HW268544   5.604   6.813   5.799
21584SOL     OW68545   5.674   7.387   6.513
21584SOL    HW168546   5.632   7.301   6.486
21584SOL    HW268547   5.768   7.390   6.479
21585SOL     OW68548   6.090   7.154   6.496
21585SOL    HW168549   6.156   7.228   6.505
21585SOL    HW268550   6.134   7.075   6.454
21586SOL     OW68551   6.588   6.382   6.824
21586SOL    HW168552   6.629   6.350   6.910
21586SOL    HW268553   6.492   6.355   6.821
21587SOL     OW68554   5.626   6.130   6.700
21587SOL    HW168555   5.711   6.097   6.659
21587SOL    HW268556   5.639   6.145   6.798
21588SOL     OW68557   5.775   6.106   7.308
21588SOL    HW168558   5.834   6.066   7.238
21588SOL    HW268559   5.717   6.177   7.267
21589SOL     OW68560   6.955   6.536   7.246
21589SOL    HW168561   6.994   6.625   7.266
21589SOL    HW268562   6.965   6.516   7.149
21590SOL     OW68563   6.401   6.158   5.911
21590SOL    HW168564   6.408   6.069   5.865
21590SOL    HW268565   6.307   6.192   5.903
21591SOL     OW68566   7.243   6.190   6.792
21591SOL    HW168567   7.205   6.121   6.854
21591SOL    HW268568   7.325   6.154   6.748
21592SOL     OW68569   5.838   7.150   7.330
21592SOL    HW168570   5.808   7.207   7.406
21592SOL    HW268571   5.831   7.053   7.356
21593SOL     OW68572   6.257   6.050   6.855
21593SOL    HW168573   6.223   5.961   6.825
21593SOL    HW268574   6.283   6.104   6.775
21594SOL     OW68575   6.516   7.264   7.051
21594SOL    HW168576   6.492   7.246   6.956
21594SOL    HW268577   6.546   7.358   7.061
21595SOL     OW68578   6.059   6.086   5.777
21595SOL    HW168579   6.120   6.166   5.781
21595SOL    HW268580   5.964   6.117   5.784
21596SOL     OW68581   5.745   6.723   7.052
21596SOL    HW168582   5.767   6.662   7.128
21596SOL    HW268583   5.755   6.674   6.966
21597SOL     OW68584   6.933   6.645   6.820
21597SOL    HW168585   6.957   6.582   6.746
21597SOL    HW268586   6.843   6.685   6.802
21598SOL     OW68587   6.888   6.441   5.895
21598SOL    HW168588   6.802   6.410   5.937
21598SOL    HW268589   6.884   6.427   5.796
21599SOL     OW68590   7.345   7.333   6.740
21599SOL    HW168591   7.406   7.363   6.667
21599SOL    HW268592   7.307   7.244   6.718
21600SOL     OW68593   6.838   7.317   6.714
21600SOL    HW168594   6.922   7.322   6.660
21600SOL    HW268595   6.815   7.221   6.732
21601SOL     OW68596   5.669   6.844   6.608
21601SOL    HW168597   5.664   6.843   6.708
21601SOL    HW268598   5.586   6.803   6.570
21602SOL     OW68599   6.274   7.248   7.302
21602SOL    HW168600   6.218   7.329   7.311
21602SOL    HW268601   6.326   7.252   7.216
21603SOL     OW68602   7.312   5.721   6.109
21603SOL    HW168603   7.385   5.704   6.042
21603SOL    HW268604   7.281   5.634   6.147
21604SOL     OW68605   6.974   7.159   6.063
21604SOL    HW168606   7.041   7.171   5.989
21604SOL    HW268607   6.934   7.248   6.086
21605SOL     OW68608   5.716   7.380   7.437
21605SOL    HW168609   5.675   7.306   7.490
21605SOL    HW268610   5.780   7.431   7.495
21606SOL     OW68611   6.866   6.513   6.258
21606SOL    HW168612   6.926   6.432   6.260
21606SOL    HW268613   6.906   6.582   6.198
21607SOL     OW68614   6.416   6.859   7.008
21607SOL    HW168615   6.411   6.892   7.103
21607SOL    HW268616   6.330   6.878   6.962
21608SOL     OW68617   6.258   7.202   5.740
21608SOL    HW168618   6.267   7.212   5.641
21608SOL    HW268619   6.218   7.113   5.761
21609SOL     OW68620   7.236   7.306   6.980
21609SOL    HW168621   7.289   7.316   6.896
21609SOL    HW268622   7.209   7.396   7.014
21610SOL     OW68623   7.427   5.761   6.549
21610SOL    HW168624   7.466   5.676   6.513
21610SOL    HW268625   7.329   5.763   6.530
21611SOL     OW68626   5.849   5.912   6.306
21611SOL    HW168627   5.770   5.963   6.272
21611SOL    HW268628   5.840   5.897   6.404
21612SOL     OW68629   6.780   7.198   5.617
21612SOL    HW168630   6.786   7.105   5.654
21612SOL    HW268631   6.721   7.198   5.537
21613SOL     OW68632   6.408   6.588   6.958
21613SOL    HW168633   6.448   6.587   6.866
21613SOL    HW268634   6.418   6.680   6.998
21614SOL     OW68635   6.502   6.496   5.877
21614SOL    HW168636   6.565   6.534   5.809
21614SOL    HW268637   6.542   6.413   5.916
21615SOL     OW68638   7.090   7.193   5.630
21615SOL    HW168639   6.998   7.230   5.637
21615SOL    HW268640   7.128   7.213   5.540
21616SOL     OW68641   5.958   6.874   7.076
21616SOL    HW168642   5.945   6.967   7.042
21616SOL    HW268643   5.874   6.822   7.063
21617SOL     OW68644   7.200   6.878   6.875
21617SOL    HW168645   7.260   6.881   6.955
21617SOL    HW268646   7.125   6.942   6.888
21618SOL     OW68647   6.625   6.684   6.282
21618SOL    HW168648   6.555   6.637   6.336
21618SOL    HW268649   6.684   6.616   6.239
21619SOL     OW68650   6.600   5.822   6.557
21619SOL    HW168651   6.592   5.786   6.464
21619SOL    HW268652   6.598   5.746   6.622
21620SOL     OW68653   6.176   7.073   6.077
21620SOL    HW168654   6.218   7.015   6.007
21620SOL    HW268655   6.132   7.152   6.033
21621SOL     OW68656   7.295   5.971   6.967
21621SOL    HW168657   7.368   6.040   6.971
21621SOL    HW268658   7.323   5.896   6.908
21622SOL     OW68659   5.841   6.934   5.876
21622SOL    HW168660   5.745   6.935   5.849
21622SOL    HW268661   5.853   6.987   5.960
21623SOL     OW68662   5.691   6.599   7.312
21623SOL    HW168663   5.614   6.566   7.366
21623SOL    HW268664   5.776   6.569   7.354
21624SOL     OW68665   6.258   5.789   7.075
21624SOL    HW168666   6.348   5.773   7.035
21624SOL    HW268667   6.266   5.794   7.174
21625SOL     OW68668   5.661   5.931   5.619
21625SOL    HW168669   5.569   5.903   5.590
21625SOL    HW268670   5.692   6.008   5.563
21626SOL     OW68671   7.026   6.442   6.984
21626SOL    HW168672   6.969   6.494   6.921
21626SOL    HW268673   7.122   6.454   6.960
21627SOL     OW68674   5.658   5.752   5.904
21627SOL    HW168675   5.641   5.835   5.850
21627SOL    HW268676   5.748   5.715   5.882
21628SOL     OW68677   6.769   6.921   5.705
21628SOL    HW168678   6.670   6.910   5.707
21628SOL    HW268679   6.803   6.936   5.798
21629SOL     OW68680   6.199   6.428   7.017
21629SOL    HW168681   6.255   6.509   7.000
21629SOL    HW268682   6.258   6.348   7.020
21630SOL     OW68683   7.079   7.353   6.545
21630SOL    HW168684   7.112   7.417   6.476
21630SOL    HW268685   7.145   7.347   6.620
21631SOL     OW68686   6.302   6.151   7.294
21631SOL    HW168687   6.321   6.216   7.368
21631SOL    HW268688   6.362   6.071   7.303
21632SOL     OW68689   7.036   6.806   7.219
21632SOL    HW168690   7.027   6.796   7.318
21632SOL    HW268691   7.132   6.799   7.193
21633SOL     OW68692   5.976   7.327   7.146
21633SOL    HW168693   5.885   7.368   7.144
21633SOL    HW268694   5.969   7.233   7.178
21634SOL     OW68695   7.260   6.469   6.840
21634SOL    HW168696   7.233   6.380   6.803
21634SOL    HW268697   7.261   6.537   6.767
21635SOL     OW68698   6.811   5.911   6.035
21635SOL    HW168699   6.876   5.837   6.024
21635SOL    HW268700   6.831   5.961   6.119
21636SOL     OW68701   6.180   6.331   6.238
21636SOL    HW168702   6.230   6.416   6.219
21636SOL    HW268703   6.092   6.333   6.190
21637SOL     OW68704   7.363   5.928   7.228
21637SOL    HW168705   7.346   5.959   7.134
21637SOL    HW268706   7.279   5.891   7.266
21638SOL     OW68707   7.316   6.520   7.103
21638SOL    HW168708   7.354   6.611   7.118
21638SOL    HW268709   7.308   6.503   7.004
21639SOL     OW68710   6.445   6.960   5.602
21639SOL    HW168711   6.399   6.975   5.690
21639SOL    HW268712   6.489   7.045   5.572
21640SOL     OW68713   6.247   7.376   6.539
21640SOL    HW168714   6.201   7.464   6.526
21640SOL    HW268715   6.346   7.388   6.532
21641SOL     OW68716   6.445   6.542   6.447
21641SOL    HW168717   6.499   6.473   6.495
21641SOL    HW268718   6.413   6.611   6.513
21642SOL     OW68719   6.669   6.570   5.673
21642SOL    HW168720   6.646   6.623   5.591
21642SOL    HW268721   6.750   6.514   5.654
21643SOL     OW68722   7.447   7.155   6.437
21643SOL    HW168723   7.376   7.143   6.367
21643SOL    HW268724   7.448   7.076   6.497
21644SOL     OW68725   5.807   6.900   7.430
21644SOL    HW168726   5.742   6.827   7.409
21644SOL    HW268727   5.811   6.914   7.528
21645SOL     OW68728   5.665   6.826   6.239
21645SOL    HW168729   5.664   6.779   6.327
21645SOL    HW268730   5.747   6.798   6.188
21646SOL     OW68731   6.258   6.977   7.210
21646SOL    HW168732   6.180   6.927   7.248
21646SOL    HW268733   6.255   7.072   7.241
21647SOL     OW68734   7.410   5.778   6.813
21647SOL    HW168735   7.406   5.688   6.857
21647SOL    HW268736   7.413   5.767   6.714
21648SOL     OW68737   6.014   6.010   6.106
21648SOL    HW168738   6.044   5.938   6.044
21648SOL    HW268739   5.975   5.970   6.189
21649SOL     OW68740   7.291   7.073   6.690
21649SOL    HW168741   7.198   7.048   6.663
21649SOL    HW268742   7.317   7.023   6.772
21650SOL     OW68743   5.903   6.133   6.866
21650SOL    HW168744   5.941   6.074   6.938
21650SOL    HW268745   5.943   6.107   6.778
21651SOL     OW68746   6.398   7.172   6.273
21651SOL    HW168747   6.430   7.182   6.179
21651SOL    HW268748   6.319   7.110   6.275
21652SOL     OW68749   7.010   5.800   6.698
21652SOL    HW168750   7.062   5.735   6.753
21652SOL    HW268751   6.961   5.863   6.759
21653SOL     OW68752   6.587   5.620   6.740
21653SOL    HW168753   6.524   5.548   6.709
21653SOL    HW268754   6.680   5.584   6.740
21654SOL     OW68755   6.356   6.916   5.887
21654SOL    HW168756   6.310   6.829   5.904
21654SOL    HW268757   6.447   6.913   5.928
21655SOL     OW68758   6.204   7.153   6.870
21655SOL    HW168759   6.199   7.235   6.927
21655SOL    HW268760   6.293   7.150   6.825
21656SOL     OW68761   6.938   5.638   5.754
21656SOL    HW168762   6.973   5.597   5.670
21656SOL    HW268763   6.848   5.600   5.774
21657SOL     OW68764   6.886   6.039   6.277
21657SOL    HW168765   6.827   6.119   6.281
21657SOL    HW268766   6.901   6.004   6.370
21658SOL     OW68767   7.179   5.807   6.468
21658SOL    HW168768   7.095   5.806   6.522
21658SOL    HW268769   7.181   5.890   6.412
21659SOL     OW68770   5.625   6.663   5.886
21659SOL    HW168771   5.724   6.652   5.877
21659SOL    HW268772   5.585   6.577   5.918
21660SOL     OW68773   6.461   7.232   5.923
21660SOL    HW168774   6.384   7.197   5.869
21660SOL    HW268775   6.429   7.303   5.985
21661SOL     OW68776   5.816   6.214   7.561
21661SOL    HW168777   5.723   6.212   7.598
21661SOL    HW268778   5.817   6.175   7.469
21662SOL     OW68779   5.811   5.861   8.444
21662SOL    HW168780   5.846   5.844   8.536
21662SOL    HW268781   5.723   5.816   8.432
21663SOL     OW68782   5.605   5.954   8.095
21663SOL    HW168783   5.523   5.997   8.134
21663SOL    HW268784   5.577   5.881   8.032
21664SOL     OW68785   6.155   6.861   8.613
21664SOL    HW168786   6.062   6.854   8.576
21664SOL    HW268787   6.166   6.950   8.657
21665SOL     OW68788   7.141   7.097   8.151
21665SOL    HW168789   7.084   7.081   8.232
21665SOL    HW268790   7.082   7.107   8.071
21666SOL     OW68791   6.721   6.289   8.165
21666SOL    HW168792   6.778   6.367   8.140
21666SOL    HW268793   6.661   6.315   8.241
21667SOL     OW68794   7.341   6.193   7.679
21667SOL    HW168795   7.329   6.180   7.580
21667SOL    HW268796   7.311   6.112   7.728
21668SOL     OW68797   6.354   6.730   8.471
21668SOL    HW168798   6.276   6.747   8.531
21668SOL    HW268799   6.388   6.817   8.435
21669SOL     OW68800   6.436   6.384   9.271
21669SOL    HW168801   6.432   6.460   9.336
21669SOL    HW268802   6.458   6.420   9.180
21670SOL     OW68803   6.271   6.598   8.113
21670SOL    HW168804   6.340   6.582   8.183
21670SOL    HW268805   6.198   6.655   8.151
21671SOL     OW68806   6.272   6.747   9.251
21671SOL    HW168807   6.332   6.826   9.265
21671SOL    HW268808   6.186   6.778   9.210
21672SOL     OW68809   5.921   7.021   8.509
21672SOL    HW168810   5.843   6.990   8.456
21672SOL    HW268811   5.979   7.079   8.452
21673SOL     OW68812   7.046   7.091   8.787
21673SOL    HW168813   7.070   7.185   8.813
21673SOL    HW268814   7.030   7.037   8.869
21674SOL     OW68815   6.024   5.978   8.947
21674SOL    HW168816   6.106   5.922   8.956
21674SOL    HW268817   5.943   5.920   8.951
21675SOL     OW68818   7.189   6.033   8.185
21675SOL    HW168819   7.115   6.079   8.135
21675SOL    HW268820   7.240   6.101   8.238
21676SOL     OW68821   5.817   7.299   7.931
21676SOL    HW168822   5.851   7.376   7.985
21676SOL    HW268823   5.861   7.299   7.841
21677SOL     OW68824   6.713   6.927   9.138
21677SOL    HW168825   6.760   6.927   9.226
21677SOL    HW268826   6.665   6.840   9.127
21678SOL     OW68827   5.816   7.020   7.986
21678SOL    HW168828   5.790   7.116   7.986
21678SOL    HW268829   5.745   6.966   8.031
21679SOL     OW68830   5.826   6.677   8.334
21679SOL    HW168831   5.840   6.593   8.386
21679SOL    HW268832   5.771   6.741   8.389
21680SOL     OW68833   6.206   7.372   8.887
21680SOL    HW168834   6.114   7.355   8.922
21680SOL    HW268835   6.234   7.464   8.913
21681SOL     OW68836   6.192   6.550   7.571
21681SOL    HW168837   6.199   6.634   7.517
21681SOL    HW268838   6.238   6.563   7.659
21682SOL     OW68839   7.180   5.700   8.928
21682SOL    HW168840   7.162   5.767   8.856
21682SOL    HW268841   7.177   5.746   9.017
21683SOL     OW68842   5.708   6.229   8.011
21683SOL    HW168843   5.663   6.141   8.028
21683SOL    HW268844   5.707   6.283   8.095
21684SOL     OW68845   7.428   7.353   7.807
21684SOL    HW168846   7.482   7.324   7.887
21684SOL    HW268847   7.458   7.443   7.778
21685SOL     OW68848   5.613   7.182   7.565
21685SOL    HW168849   5.594   7.086   7.586
21685SOL    HW268850   5.580   7.240   7.640
21686SOL     OW68851   7.275   6.508   8.060
21686SOL    HW168852   7.370   6.479   8.068
21686SOL    HW268853   7.267   6.573   7.985
21687SOL     OW68854   7.227   6.694   7.880
21687SOL    HW168855   7.313   6.696   7.828
21687SOL    HW268856   7.241   6.741   7.968
21688SOL     OW68857   5.699   6.323   9.045
21688SOL    HW168858   5.787   6.310   9.090
21688SOL    HW268859   5.686   6.420   9.023
21689SOL     OW68860   6.199   6.951   8.174
21689SOL    HW168861   6.150   6.864   8.183
21689SOL    HW268862   6.176   6.994   8.087
21690SOL     OW68863   6.879   6.814   8.871
21690SOL    HW168864   6.916   6.741   8.813
21690SOL    HW268865   6.931   6.819   8.956
21691SOL     OW68866   6.395   5.590   7.950
21691SOL    HW168867   6.435   5.681   7.941
21691SOL    HW268868   6.295   5.598   7.956
21692SOL     OW68869   5.783   6.562   8.712
21692SOL    HW168870   5.872   6.517   8.698
21692SOL    HW268871   5.710   6.497   8.693
21693SOL     OW68872   7.111   6.585   7.638
21693SOL    HW168873   7.048   6.509   7.651
21693SOL    HW268874   7.159   6.603   7.724
21694SOL     OW68875   6.773   7.378   9.064
21694SOL    HW168876   6.797   7.438   8.988
21694SOL    HW268877   6.780   7.283   9.034
21695SOL     OW68878   5.903   5.837   9.249
21695SOL    HW168879   5.974   5.908   9.255
21695SOL    HW268880   5.815   5.876   9.277
21696SOL     OW68881   7.052   7.003   8.401
21696SOL    HW168882   6.993   7.009   8.481
21696SOL    HW268883   7.037   6.915   8.355
21697SOL     OW68884   7.253   7.300   8.020
21697SOL    HW168885   7.212   7.277   7.932
21697SOL    HW268886   7.235   7.226   8.085
21698SOL     OW68887   6.184   6.315   7.718
21698SOL    HW168888   6.208   6.384   7.650
21698SOL    HW268889   6.106   6.348   7.772
21699SOL     OW68890   6.867   5.931   8.392
21699SOL    HW168891   6.781   5.881   8.379
21699SOL    HW268892   6.929   5.877   8.448
21700SOL     OW68893   7.162   7.248   7.755
21700SOL    HW168894   7.251   7.294   7.758
21700SOL    HW268895   7.141   7.224   7.660
21701SOL     OW68896   6.393   6.191   8.913
21701SOL    HW168897   6.346   6.188   9.002
21701SOL    HW268898   6.342   6.136   8.847
21702SOL     OW68899   6.980   6.055   9.122
21702SOL    HW168900   6.960   6.098   9.210
21702SOL    HW268901   7.058   5.993   9.131
21703SOL     OW68902   6.559   6.476   9.020
21703SOL    HW168903   6.605   6.392   8.991
21703SOL    HW268904   6.503   6.510   8.945
21704SOL     OW68905   6.577   5.996   8.690
21704SOL    HW168906   6.500   6.030   8.744
21704SOL    HW268907   6.543   5.945   8.611
21705SOL     OW68908   6.627   6.287   7.877
21705SOL    HW168909   6.653   6.283   7.973
21705SOL    HW268910   6.542   6.236   7.863
21706SOL     OW68911   5.662   6.397   8.237
21706SOL    HW168912   5.761   6.385   8.246
21706SOL    HW268913   5.638   6.492   8.258
21707SOL     OW68914   6.451   5.934   7.643
21707SOL    HW168915   6.510   5.997   7.594
21707SOL    HW268916   6.470   5.840   7.614
21708SOL     OW68917   7.305   6.171   9.279
21708SOL    HW168918   7.279   6.260   9.243
21708SOL    HW268919   7.303   6.103   9.206
21709SOL     OW68920   6.948   6.730   7.993
21709SOL    HW168921   7.031   6.701   7.945
21709SOL    HW268922   6.899   6.797   7.937
21710SOL     OW68923   6.136   5.782   8.333
21710SOL    HW168924   6.131   5.777   8.433
21710SOL    HW268925   6.138   5.878   8.304
21711SOL     OW68926   6.594   7.042   7.925
21711SOL    HW168927   6.548   7.114   7.873
21711SOL    HW268928   6.590   7.062   8.023
21712SOL     OW68929   5.937   7.387   8.301
21712SOL    HW168930   5.987   7.301   8.307
21712SOL    HW268931   6.002   7.464   8.298
21713SOL     OW68932   7.381   6.652   8.321
21713SOL    HW168933   7.319   6.637   8.245
21713SOL    HW268934   7.329   6.663   8.406
21714SOL     OW68935   6.813   7.136   8.954
21714SOL    HW168936   6.819   7.059   9.018
21714SOL    HW268937   6.761   7.110   8.874
21715SOL     OW68938   5.907   6.529   7.690
21715SOL    HW168939   5.989   6.568   7.648
21715SOL    HW268940   5.880   6.447   7.641
21716SOL     OW68941   7.044   6.321   8.176
21716SOL    HW168942   7.039   6.256   8.251
21716SOL    HW268943   7.124   6.380   8.189
21717SOL     OW68944   6.047   6.852   9.175
21717SOL    HW168945   5.997   6.853   9.089
21717SOL    HW268946   5.984   6.834   9.251
21718SOL     OW68947   6.697   7.362   7.685
21718SOL    HW168948   6.637   7.300   7.735
21718SOL    HW268949   6.728   7.318   7.600
21719SOL     OW68950   5.788   5.871   8.946
21719SOL    HW168951   5.708   5.931   8.933
21719SOL    HW268952   5.778   5.822   9.032
21720SOL     OW68953   7.218   6.963   7.529
21720SOL    HW168954   7.186   7.057   7.519
21720SOL    HW268955   7.142   6.900   7.517
21721SOL     OW68956   6.050   7.329   7.771
21721SOL    HW168957   6.083   7.368   7.857
21721SOL    HW268958   6.126   7.322   7.706
21722SOL     OW68959   6.986   5.693   7.874
21722SOL    HW168960   6.962   5.656   7.784
21722SOL    HW268961   7.085   5.709   7.878
21723SOL     OW68962   5.835   7.371   8.689
21723SOL    HW168963   5.892   7.306   8.739
21723SOL    HW268964   5.819   7.338   8.596
21724SOL     OW68965   6.526   7.284   8.352
21724SOL    HW168966   6.606   7.227   8.373
21724SOL    HW268967   6.477   7.244   8.275
21725SOL     OW68968   5.968   6.286   7.928
21725SOL    HW168969   6.013   6.196   7.925
21725SOL    HW268970   5.874   6.275   7.961
21726SOL     OW68971   7.133   5.808   9.177
21726SOL    HW168972   7.128   5.845   9.269
21726SOL    HW268973   7.061   5.739   9.165
21727SOL     OW68974   6.200   5.708   7.565
21727SOL    HW168975   6.298   5.686   7.572
21727SOL    HW268976   6.169   5.691   7.472
21728SOL     OW68977   6.474   7.100   8.643
21728SOL    HW168978   6.451   7.075   8.549
21728SOL    HW268979   6.535   7.031   8.682
21729SOL     OW68980   6.937   6.176   8.881
21729SOL    HW168981   6.965   6.133   8.966
21729SOL    HW268982   6.962   6.272   8.882
21730SOL     OW68983   6.389   6.988   8.372
21730SOL    HW168984   6.479   7.002   8.330
21730SOL    HW268985   6.318   6.990   8.301
21731SOL     OW68986   6.508   6.089   8.347
21731SOL    HW168987   6.483   6.080   8.251
21731SOL    HW268988   6.556   6.007   8.378
21732SOL     OW68989   6.125   5.650   7.960
21732SOL    HW168990   6.044   5.651   8.018
21732SOL    HW268991   6.128   5.733   7.905
21733SOL     OW68992   7.020   6.774   7.489
21733SOL    HW168993   7.052   6.698   7.546
21733SOL    HW268994   6.928   6.801   7.519
21734SOL     OW68995   5.883   5.621   7.619
21734SOL    HW168996   5.932   5.705   7.598
21734SOL    HW268997   5.945   5.556   7.664
21735SOL     OW68998   6.521   5.822   7.928
21735SOL    HW168999   6.473   5.863   7.850
21735SOL    HW269000   6.620   5.820   7.909
21736SOL     OW69001   6.662   6.269   8.912
21736SOL    HW169002   6.582   6.208   8.915
21736SOL    HW269003   6.743   6.216   8.888
21737SOL     OW69004   6.813   7.156   8.241
21737SOL    HW169005   6.834   7.230   8.176
21737SOL    HW269006   6.881   7.156   8.314
21738SOL     OW69007   6.045   6.738   8.189
21738SOL    HW169008   5.974   6.711   8.254
21738SOL    HW269009   6.019   6.710   8.096
21739SOL     OW69010   6.857   7.383   8.039
21739SOL    HW169011   6.901   7.447   7.975
21739SOL    HW269012   6.807   7.435   8.109
21740SOL     OW69013   6.618   6.135   7.464
21740SOL    HW169014   6.577   6.217   7.425
21740SOL    HW269015   6.682   6.161   7.537
21741SOL     OW69016   5.664   6.142   8.834
21741SOL    HW169017   5.756   6.141   8.793
21741SOL    HW269018   5.658   6.216   8.901
21742SOL     OW69019   6.147   5.808   8.595
21742SOL    HW169020   6.185   5.724   8.632
21742SOL    HW269021   6.059   5.827   8.639
21743SOL     OW69022   6.452   6.040   8.090
21743SOL    HW169023   6.420   6.112   8.028
21743SOL    HW269024   6.476   5.959   8.037
21744SOL     OW69025   6.603   5.625   8.201
21744SOL    HW169026   6.531   5.630   8.132
21744SOL    HW269027   6.579   5.556   8.270
21745SOL     OW69028   7.015   6.759   8.315
21745SOL    HW169029   6.960   6.675   8.308
21745SOL    HW269030   7.041   6.788   8.223
21746SOL     OW69031   7.052   6.176   8.440
21746SOL    HW169032   7.022   6.081   8.447
21746SOL    HW269033   7.125   6.192   8.506
21747SOL     OW69034   7.443   6.419   7.825
21747SOL    HW169035   7.485   6.355   7.889
21747SOL    HW269036   7.405   6.368   7.747
21748SOL     OW69037   6.074   6.971   7.622
21748SOL    HW169038   5.987   6.956   7.669
21748SOL    HW269039   6.057   6.997   7.527
21749SOL     OW69040   7.250   6.866   8.105
21749SOL    HW169041   7.349   6.874   8.119
21749SOL    HW269042   7.205   6.950   8.136
21750SOL     OW69043   6.976   6.161   7.526
21750SOL    HW169044   6.922   6.140   7.607
21750SOL    HW269045   7.067   6.120   7.535
21751SOL     OW69046   6.113   5.842   7.776
21751SOL    HW169047   6.140   5.783   7.701
21751SOL    HW269048   6.113   5.937   7.745
21752SOL     OW69049   7.340   6.809   9.036
21752SOL    HW169050   7.431   6.770   9.023
21752SOL    HW269051   7.348   6.905   9.060
21753SOL     OW69052   6.650   6.933   8.788
21753SOL    HW169053   6.570   6.910   8.843
21753SOL    HW269054   6.733   6.907   8.837
21754SOL     OW69055   7.178   7.215   9.073
21754SOL    HW169056   7.205   7.249   8.983
21754SOL    HW269057   7.257   7.177   9.119
21755SOL     OW69058   6.697   6.781   8.548
21755SOL    HW169059   6.657   6.825   8.629
21755SOL    HW269060   6.656   6.818   8.465
21756SOL     OW69061   7.224   6.685   8.527
21756SOL    HW169062   7.229   6.766   8.586
21756SOL    HW269063   7.138   6.687   8.476
21757SOL     OW69064   6.501   5.675   8.850
21757SOL    HW169065   6.526   5.655   8.755
21757SOL    HW269066   6.573   5.731   8.892
21758SOL     OW69067   6.566   6.702   9.167
21758SOL    HW169068   6.467   6.708   9.177
21758SOL    HW269069   6.589   6.622   9.111
21759SOL     OW69070   6.291   6.636   7.816
21759SOL    HW169071   6.277   6.643   7.915
21759SOL    HW269072   6.375   6.585   7.798
21760SOL     OW69073   5.996   6.399   8.699
21760SOL    HW169074   6.082   6.411   8.749
21760SOL    HW269075   5.954   6.312   8.726
21761SOL     OW69076   6.860   5.972   8.710
21761SOL    HW169077   6.881   6.046   8.774
21761SOL    HW269078   6.771   5.989   8.667
21762SOL     OW69079   5.650   7.150   8.779
21762SOL    HW169080   5.604   7.232   8.745
21762SOL    HW269081   5.748   7.169   8.788
21763SOL     OW69082   5.953   6.686   7.949
21763SOL    HW169083   5.946   6.769   7.893
21763SOL    HW269084   5.957   6.606   7.889
21764SOL     OW69085   6.152   6.123   8.313
21764SOL    HW169086   6.164   6.189   8.239
21764SOL    HW269087   6.198   6.157   8.396
21765SOL     OW69088   6.838   6.934   7.836
21765SOL    HW169089   6.888   7.011   7.876
21765SOL    HW269090   6.743   6.936   7.868
21766SOL     OW69091   6.858   7.031   8.590
21766SOL    HW169092   6.905   7.044   8.677
21766SOL    HW269093   6.792   6.957   8.599
21767SOL     OW69094   7.168   6.225   7.920
21767SOL    HW169095   7.137   6.286   7.993
21767SOL    HW269096   7.218   6.277   7.851
21768SOL     OW69097   5.940   7.096   8.777
21768SOL    HW169098   5.919   7.052   8.690
21768SOL    HW269099   6.037   7.122   8.780
21769SOL     OW69100   5.988   6.337   9.046
21769SOL    HW169101   6.056   6.392   8.999
21769SOL    HW269102   6.028   6.249   9.073
21770SOL     OW69103   7.173   6.365   9.118
21770SOL    HW169104   7.081   6.403   9.113
21770SOL    HW269105   7.233   6.412   9.053
21771SOL     OW69106   6.090   5.636   9.188
21771SOL    HW169107   6.048   5.579   9.118
21771SOL    HW269108   6.024   5.705   9.220
21772SOL     OW69109   6.159   6.456   8.477
21772SOL    HW169110   6.203   6.545   8.468
21772SOL    HW269111   6.096   6.456   8.554
21773SOL     OW69112   6.946   6.448   8.493
21773SOL    HW169113   6.871   6.448   8.427
21773SOL    HW269114   6.983   6.356   8.502
21774SOL     OW69115   6.795   6.111   7.723
21774SOL    HW169116   6.808   6.027   7.777
21774SOL    HW269117   6.766   6.185   7.783
21775SOL     OW69118   5.893   5.799   8.679
21775SOL    HW169119   5.870   5.836   8.769
21775SOL    HW269120   5.863   5.704   8.673
21776SOL     OW69121   5.623   6.896   8.730
21776SOL    HW169122   5.676   6.847   8.798
21776SOL    HW269123   5.645   6.994   8.735
21777SOL     OW69124   6.318   6.220   8.512
21777SOL    HW169125   6.377   6.194   8.436
21777SOL    HW269126   6.290   6.316   8.501
21778SOL     OW69127   7.314   6.521   9.302
21778SOL    HW169128   7.268   6.514   9.213
21778SOL    HW269129   7.252   6.565   9.368
21779SOL     OW69130   5.893   5.649   8.066
21779SOL    HW169131   5.882   5.743   8.099
21779SOL    HW269132   5.888   5.586   8.143
21780SOL     OW69133   7.208   5.953   7.822
21780SOL    HW169134   7.210   5.877   7.886
21780SOL    HW269135   7.160   6.030   7.862
21781SOL     OW69136   6.609   6.352   8.414
21781SOL    HW169137   6.624   6.373   8.510
21781SOL    HW269138   6.579   6.257   8.405
21782SOL     OW69139   6.566   7.159   9.148
21782SOL    HW169140   6.546   7.203   9.060
21782SOL    HW269141   6.605   7.068   9.132
21783SOL     OW69142   7.445   7.104   9.053
21783SOL    HW169143   7.459   7.131   8.958
21783SOL    HW269144   7.528   7.126   9.106
21784SOL     OW69145   5.936   6.484   9.252
21784SOL    HW169146   6.012   6.528   9.300
21784SOL    HW269147   5.971   6.437   9.170
21785SOL     OW69148   7.126   5.860   7.573
21785SOL    HW169149   7.065   5.785   7.596
21785SOL    HW269150   7.148   5.912   7.656
21786SOL     OW69151   6.889   6.424   7.490
21786SOL    HW169152   6.923   6.331   7.505
21786SOL    HW269153   6.907   6.451   7.395
21787SOL     OW69154   6.654   6.919   8.297
21787SOL    HW169155   6.661   6.835   8.242
21787SOL    HW269156   6.716   6.988   8.261
21788SOL     OW69157   5.905   6.396   8.397
21788SOL    HW169158   5.998   6.432   8.402
21788SOL    HW269159   5.899   6.311   8.449
21789SOL     OW69160   5.925   6.095   8.454
21789SOL    HW169161   5.873   6.012   8.437
21789SOL    HW269162   6.002   6.100   8.390
21790SOL     OW69163   6.746   5.793   8.925
21790SOL    HW169164   6.746   5.857   9.002
21790SOL    HW269165   6.774   5.841   8.842
21791SOL     OW69166   5.594   6.912   7.648
21791SOL    HW169167   5.501   6.933   7.617
21791SOL    HW269168   5.604   6.813   7.661
21792SOL     OW69169   5.674   7.387   8.375
21792SOL    HW169170   5.632   7.301   8.348
21792SOL    HW269171   5.768   7.390   8.341
21793SOL     OW69172   6.090   7.154   8.358
21793SOL    HW169173   6.156   7.228   8.367
21793SOL    HW269174   6.134   7.075   8.316
21794SOL     OW69175   6.588   6.382   8.686
21794SOL    HW169176   6.629   6.350   8.772
21794SOL    HW269177   6.492   6.355   8.683
21795SOL     OW69178   5.626   6.130   8.562
21795SOL    HW169179   5.711   6.097   8.521
21795SOL    HW269180   5.639   6.145   8.660
21796SOL     OW69181   5.775   6.106   9.170
21796SOL    HW169182   5.834   6.066   9.100
21796SOL    HW269183   5.717   6.177   9.129
21797SOL     OW69184   6.955   6.536   9.108
21797SOL    HW169185   6.994   6.625   9.128
21797SOL    HW269186   6.965   6.516   9.011
21798SOL     OW69187   6.401   6.158   7.773
21798SOL    HW169188   6.408   6.069   7.727
21798SOL    HW269189   6.307   6.192   7.765
21799SOL     OW69190   7.243   6.190   8.654
21799SOL    HW169191   7.205   6.121   8.716
21799SOL    HW269192   7.325   6.154   8.610
21800SOL     OW69193   5.838   7.150   9.192
21800SOL    HW169194   5.808   7.207   9.268
21800SOL    HW269195   5.831   7.053   9.218
21801SOL     OW69196   6.257   6.050   8.717
21801SOL    HW169197   6.223   5.961   8.687
21801SOL    HW269198   6.283   6.104   8.637
21802SOL     OW69199   6.516   7.264   8.913
21802SOL    HW169200   6.492   7.246   8.818
21802SOL    HW269201   6.546   7.358   8.923
21803SOL     OW69202   6.059   6.086   7.639
21803SOL    HW169203   6.120   6.166   7.643
21803SOL    HW269204   5.964   6.117   7.646
21804SOL     OW69205   5.745   6.723   8.914
21804SOL    HW169206   5.767   6.662   8.990
21804SOL    HW269207   5.755   6.674   8.828
21805SOL     OW69208   6.933   6.645   8.682
21805SOL    HW169209   6.957   6.582   8.608
21805SOL    HW269210   6.843   6.685   8.664
21806SOL     OW69211   6.888   6.441   7.757
21806SOL    HW169212   6.802   6.410   7.799
21806SOL    HW269213   6.884   6.427   7.658
21807SOL     OW69214   7.345   7.333   8.602
21807SOL    HW169215   7.406   7.363   8.529
21807SOL    HW269216   7.307   7.244   8.580
21808SOL     OW69217   6.838   7.317   8.576
21808SOL    HW169218   6.922   7.322   8.522
21808SOL    HW269219   6.815   7.221   8.594
21809SOL     OW69220   5.669   6.844   8.470
21809SOL    HW169221   5.664   6.843   8.570
21809SOL    HW269222   5.586   6.803   8.432
21810SOL     OW69223   6.274   7.248   9.164
21810SOL    HW169224   6.218   7.329   9.173
21810SOL    HW269225   6.326   7.252   9.078
21811SOL     OW69226   7.312   5.721   7.971
21811SOL    HW169227   7.385   5.704   7.904
21811SOL    HW269228   7.281   5.634   8.009
21812SOL     OW69229   6.974   7.159   7.925
21812SOL    HW169230   7.041   7.171   7.851
21812SOL    HW269231   6.934   7.248   7.948
21813SOL     OW69232   6.866   6.513   8.120
21813SOL    HW169233   6.926   6.432   8.122
21813SOL    HW269234   6.906   6.582   8.060
21814SOL     OW69235   6.416   6.859   8.870
21814SOL    HW169236   6.411   6.892   8.965
21814SOL    HW269237   6.330   6.878   8.824
21815SOL     OW69238   6.258   7.202   7.602
21815SOL    HW169239   6.267   7.212   7.503
21815SOL    HW269240   6.218   7.113   7.623
21816SOL     OW69241   7.236   7.306   8.842
21816SOL    HW169242   7.289   7.316   8.758
21816SOL    HW269243   7.209   7.396   8.876
21817SOL     OW69244   7.427   5.761   8.411
21817SOL    HW169245   7.466   5.676   8.375
21817SOL    HW269246   7.329   5.763   8.392
21818SOL     OW69247   5.849   5.912   8.168
21818SOL    HW169248   5.770   5.963   8.134
21818SOL    HW269249   5.840   5.897   8.266
21819SOL     OW69250   6.780   7.198   7.479
21819SOL    HW169251   6.786   7.105   7.516
21819SOL    HW269252   6.721   7.198   7.399
21820SOL     OW69253   6.408   6.588   8.820
21820SOL    HW169254   6.448   6.587   8.728
21820SOL    HW269255   6.418   6.680   8.860
21821SOL     OW69256   6.502   6.496   7.739
21821SOL    HW169257   6.565   6.534   7.671
21821SOL    HW269258   6.542   6.413   7.778
21822SOL     OW69259   7.090   7.193   7.492
21822SOL    HW169260   6.998   7.230   7.499
21822SOL    HW269261   7.128   7.213   7.402
21823SOL     OW69262   5.958   6.874   8.938
21823SOL    HW169263   5.945   6.967   8.904
21823SOL    HW269264   5.874   6.822   8.925
21824SOL     OW69265   7.200   6.878   8.737
21824SOL    HW169266   7.260   6.881   8.817
21824SOL    HW269267   7.125   6.942   8.750
21825SOL     OW69268   6.625   6.684   8.144
21825SOL    HW169269   6.555   6.637   8.198
21825SOL    HW269270   6.684   6.616   8.101
21826SOL     OW69271   6.600   5.822   8.419
21826SOL    HW169272   6.592   5.786   8.326
21826SOL    HW269273   6.598   5.746   8.484
21827SOL     OW69274   6.176   7.073   7.939
21827SOL    HW169275   6.218   7.015   7.869
21827SOL    HW269276   6.132   7.152   7.895
21828SOL     OW69277   7.295   5.971   8.829
21828SOL    HW169278   7.368   6.040   8.833
21828SOL    HW269279   7.323   5.896   8.770
21829SOL     OW69280   5.841   6.934   7.738
21829SOL    HW169281   5.745   6.935   7.711
21829SOL    HW269282   5.853   6.987   7.822
21830SOL     OW69283   5.691   6.599   9.174
21830SOL    HW169284   5.614   6.566   9.228
21830SOL    HW269285   5.776   6.569   9.216
21831SOL     OW69286   6.258   5.789   8.937
21831SOL    HW169287   6.348   5.773   8.897
21831SOL    HW269288   6.266   5.794   9.036
21832SOL     OW69289   5.661   5.931   7.481
21832SOL    HW169290   5.569   5.903   7.452
21832SOL    HW269291   5.692   6.008   7.425
21833SOL     OW69292   7.026   6.442   8.846
21833SOL    HW169293   6.969   6.494   8.783
21833SOL    HW269294   7.122   6.454   8.822
21834SOL     OW69295   5.658   5.752   7.766
21834SOL    HW169296   5.641   5.835   7.712
21834SOL    HW269297   5.748   5.715   7.744
21835SOL     OW69298   6.769   6.921   7.567
21835SOL    HW169299   6.670   6.910   7.569
21835SOL    HW269300   6.803   6.936   7.660
21836SOL     OW69301   6.199   6.428   8.879
21836SOL    HW169302   6.255   6.509   8.862
21836SOL    HW269303   6.258   6.348   8.882
21837SOL     OW69304   7.079   7.353   8.407
21837SOL    HW169305   7.112   7.417   8.338
21837SOL    HW269306   7.145   7.347   8.482
21838SOL     OW69307   6.302   6.151   9.156
21838SOL    HW169308   6.321   6.216   9.230
21838SOL    HW269309   6.362   6.071   9.165
21839SOL     OW69310   7.036   6.806   9.081
21839SOL    HW169311   7.027   6.796   9.180
21839SOL    HW269312   7.132   6.799   9.055
21840SOL     OW69313   5.976   7.327   9.008
21840SOL    HW169314   5.885   7.368   9.006
21840SOL    HW269315   5.969   7.233   9.040
21841SOL     OW69316   7.260   6.469   8.702
21841SOL    HW169317   7.233   6.380   8.665
21841SOL    HW269318   7.261   6.537   8.629
21842SOL     OW69319   6.811   5.911   7.897
21842SOL    HW169320   6.876   5.837   7.886
21842SOL    HW269321   6.831   5.961   7.981
21843SOL     OW69322   6.180   6.331   8.100
21843SOL    HW169323   6.230   6.416   8.081
21843SOL    HW269324   6.092   6.333   8.052
21844SOL     OW69325   7.363   5.928   9.090
21844SOL    HW169326   7.346   5.959   8.996
21844SOL    HW269327   7.279   5.891   9.128
21845SOL     OW69328   7.316   6.520   8.965
21845SOL    HW169329   7.354   6.611   8.980
21845SOL    HW269330   7.308   6.503   8.866
21846SOL     OW69331   6.445   6.960   7.464
21846SOL    HW169332   6.399   6.975   7.552
21846SOL    HW269333   6.489   7.045   7.434
21847SOL     OW69334   6.247   7.376   8.401
21847SOL    HW169335   6.201   7.464   8.388
21847SOL    HW269336   6.346   7.388   8.394
21848SOL     OW69337   6.445   6.542   8.309
21848SOL    HW169338   6.499   6.473   8.357
21848SOL    HW269339   6.413   6.611   8.375
21849SOL     OW69340   6.669   6.570   7.535
21849SOL    HW169341   6.646   6.623   7.453
21849SOL    HW269342   6.750   6.514   7.516
21850SOL     OW69343   7.447   7.155   8.299
21850SOL    HW169344   7.376   7.143   8.229
21850SOL    HW269345   7.448   7.076   8.359
21851SOL     OW69346   5.807   6.900   9.292
21851SOL    HW169347   5.742   6.827   9.271
21851SOL    HW269348   5.811   6.914   9.390
21852SOL     OW69349   5.665   6.826   8.101
21852SOL    HW169350   5.664   6.779   8.189
21852SOL    HW269351   5.747   6.798   8.050
21853SOL     OW69352   6.258   6.977   9.072
21853SOL    HW169353   6.180   6.927   9.110
21853SOL    HW269354   6.255   7.072   9.103
21854SOL     OW69355   7.410   5.778   8.675
21854SOL    HW169356   7.406   5.688   8.719
21854SOL    HW269357   7.413   5.767   8.576
21855SOL     OW69358   6.014   6.010   7.968
21855SOL    HW169359   6.044   5.938   7.906
21855SOL    HW269360   5.975   5.970   8.051
21856SOL     OW69361   7.291   7.073   8.552
21856SOL    HW169362   7.198   7.048   8.525
21856SOL    HW269363   7.317   7.023   8.634
21857SOL     OW69364   5.903   6.133   8.728
21857SOL    HW169365   5.941   6.074   8.800
21857SOL    HW269366   5.943   6.107   8.640
21858SOL     OW69367   6.398   7.172   8.135
21858SOL    HW169368   6.430   7.182   8.041
21858SOL    HW269369   6.319   7.110   8.137
21859SOL     OW69370   7.010   5.800   8.560
21859SOL    HW169371   7.062   5.735   8.615
21859SOL    HW269372   6.961   5.863   8.621
21860SOL     OW69373   6.587   5.620   8.602
21860SOL    HW169374   6.524   5.548   8.571
21860SOL    HW269375   6.680   5.584   8.602
21861SOL     OW69376   6.356   6.916   7.749
21861SOL    HW169377   6.310   6.829   7.766
21861SOL    HW269378   6.447   6.913   7.790
21862SOL     OW69379   6.204   7.153   8.732
21862SOL    HW169380   6.199   7.235   8.789
21862SOL    HW269381   6.293   7.150   8.687
21863SOL     OW69382   6.938   5.638   7.616
21863SOL    HW169383   6.973   5.597   7.532
21863SOL    HW269384   6.848   5.600   7.636
21864SOL     OW69385   6.886   6.039   8.139
21864SOL    HW169386   6.827   6.119   8.143
21864SOL    HW269387   6.901   6.004   8.232
21865SOL     OW69388   7.179   5.807   8.330
21865SOL    HW169389   7.095   5.806   8.384
21865SOL    HW269390   7.181   5.890   8.274
21866SOL     OW69391   5.625   6.663   7.748
21866SOL    HW169392   5.724   6.652   7.739
21866SOL    HW269393   5.585   6.577   7.780
21867SOL     OW69394   6.461   7.232   7.785
21867SOL    HW169395   6.384   7.197   7.731
21867SOL    HW269396   6.429   7.303   7.847
21868SOL     OW69397   5.816   6.214   9.423
21868SOL    HW169398   5.723   6.212   9.460
21868SOL    HW269399   5.817   6.175   9.331
21869SOL     OW69400   7.341   6.193   9.541
21869SOL    HW169401   7.329   6.180   9.442
21869SOL    HW269402   7.311   6.112   9.590
21870SOL     OW69403   5.816   7.020   9.848
21870SOL    HW169404   5.790   7.116   9.848
21870SOL    HW269405   5.745   6.966   9.893
21871SOL     OW69406   6.192   6.550   9.433
21871SOL    HW169407   6.199   6.634   9.379
21871SOL    HW269408   6.238   6.563   9.521
21872SOL     OW69409   5.708   6.229   9.873
21872SOL    HW169410   5.663   6.141   9.890
21872SOL    HW269411   5.707   6.283   9.957
21873SOL     OW69412   7.428   7.353   9.669
21873SOL    HW169413   7.482   7.324   9.749
21873SOL    HW269414   7.458   7.443   9.640
21874SOL     OW69415   7.275   6.508   9.922
21874SOL    HW169416   7.370   6.479   9.930
21874SOL    HW269417   7.267   6.573   9.847
21875SOL     OW69418   7.227   6.694   9.742
21875SOL    HW169419   7.313   6.696   9.690
21875SOL    HW269420   7.241   6.741   9.830
21876SOL     OW69421   6.199   6.951  10.036
21876SOL    HW169422   6.150   6.864  10.045
21876SOL    HW269423   6.176   6.994   9.949
21877SOL     OW69424   6.395   5.590   9.812
21877SOL    HW169425   6.435   5.681   9.803
21877SOL    HW269426   6.295   5.598   9.818
21878SOL     OW69427   7.111   6.585   9.500
21878SOL    HW169428   7.048   6.509   9.513
21878SOL    HW269429   7.159   6.603   9.586
21879SOL     OW69430   6.184   6.315   9.580
21879SOL    HW169431   6.208   6.384   9.512
21879SOL    HW269432   6.106   6.348   9.634
21880SOL     OW69433   7.162   7.248   9.617
21880SOL    HW169434   7.251   7.294   9.620
21880SOL    HW269435   7.141   7.224   9.522
21881SOL     OW69436   6.627   6.287   9.739
21881SOL    HW169437   6.653   6.283   9.835
21881SOL    HW269438   6.542   6.236   9.725
21882SOL     OW69439   5.662   6.397  10.099
21882SOL    HW169440   5.761   6.385  10.108
21882SOL    HW269441   5.638   6.492  10.120
21883SOL     OW69442   6.948   6.730   9.855
21883SOL    HW169443   7.031   6.701   9.807
21883SOL    HW269444   6.899   6.797   9.799
21884SOL     OW69445   6.594   7.042   9.787
21884SOL    HW169446   6.548   7.114   9.735
21884SOL    HW269447   6.590   7.062   9.885
21885SOL     OW69448   5.937   7.387  10.163
21885SOL    HW169449   5.987   7.301  10.169
21885SOL    HW269450   6.002   7.464  10.160
21886SOL     OW69451   5.907   6.529   9.552
21886SOL    HW169452   5.989   6.568   9.510
21886SOL    HW269453   5.880   6.447   9.503
21887SOL     OW69454   6.697   7.362   9.547
21887SOL    HW169455   6.637   7.300   9.597
21887SOL    HW269456   6.728   7.318   9.462
21888SOL     OW69457   7.218   6.963   9.391
21888SOL    HW169458   7.186   7.057   9.381
21888SOL    HW269459   7.142   6.900   9.379
21889SOL     OW69460   6.986   5.693   9.736
21889SOL    HW169461   6.962   5.656   9.646
21889SOL    HW269462   7.085   5.709   9.740
21890SOL     OW69463   5.968   6.286   9.790
21890SOL    HW169464   6.013   6.196   9.787
21890SOL    HW269465   5.874   6.275   9.823
21891SOL     OW69466   6.200   5.708   9.427
21891SOL    HW169467   6.298   5.686   9.434
21891SOL    HW269468   6.169   5.691   9.334
21892SOL     OW69469   6.125   5.650   9.822
21892SOL    HW169470   6.044   5.651   9.880
21892SOL    HW269471   6.128   5.733   9.767
21893SOL     OW69472   7.020   6.774   9.351
21893SOL    HW169473   7.052   6.698   9.408
21893SOL    HW269474   6.928   6.801   9.381
21894SOL     OW69475   6.521   5.822   9.790
21894SOL    HW169476   6.473   5.863   9.712
21894SOL    HW269477   6.620   5.820   9.771
21895SOL     OW69478   6.045   6.738  10.051
21895SOL    HW169479   5.974   6.711  10.116
21895SOL    HW269480   6.019   6.710   9.958
21896SOL     OW69481   6.857   7.383   9.901
21896SOL    HW169482   6.901   7.447   9.837
21896SOL    HW269483   6.807   7.435   9.971
21897SOL     OW69484   6.618   6.135   9.326
21897SOL    HW169485   6.577   6.217   9.287
21897SOL    HW269486   6.682   6.161   9.399
21898SOL     OW69487   6.452   6.040   9.952
21898SOL    HW169488   6.420   6.112   9.890
21898SOL    HW269489   6.476   5.959   9.899
21899SOL     OW69490   7.443   6.419   9.687
21899SOL    HW169491   7.485   6.355   9.751
21899SOL    HW269492   7.405   6.368   9.609
21900SOL     OW69493   6.074   6.971   9.484
21900SOL    HW169494   5.987   6.956   9.531
21900SOL    HW269495   6.057   6.997   9.389
21901SOL     OW69496   6.976   6.161   9.388
21901SOL    HW169497   6.922   6.140   9.469
21901SOL    HW269498   7.067   6.120   9.397
21902SOL     OW69499   6.113   5.842   9.638
21902SOL    HW169500   6.140   5.783   9.563
21902SOL    HW269501   6.113   5.937   9.607
21903SOL     OW69502   6.291   6.636   9.678
21903SOL    HW169503   6.277   6.643   9.777
21903SOL    HW269504   6.375   6.585   9.660
21904SOL     OW69505   5.953   6.686   9.811
21904SOL    HW169506   5.946   6.769   9.755
21904SOL    HW269507   5.957   6.606   9.751
21905SOL     OW69508   6.838   6.934   9.698
21905SOL    HW169509   6.888   7.011   9.738
21905SOL    HW269510   6.743   6.936   9.730
21906SOL     OW69511   7.168   6.225   9.782
21906SOL    HW169512   7.137   6.286   9.855
21906SOL    HW269513   7.218   6.277   9.713
21907SOL     OW69514   6.795   6.111   9.585
21907SOL    HW169515   6.808   6.027   9.639
21907SOL    HW269516   6.766   6.185   9.645
21908SOL     OW69517   5.893   5.649   9.928
21908SOL    HW169518   5.882   5.743   9.961
21908SOL    HW269519   5.888   5.586  10.005
21909SOL     OW69520   7.208   5.953   9.684
21909SOL    HW169521   7.210   5.877   9.748
21909SOL    HW269522   7.160   6.030   9.724
21910SOL     OW69523   7.126   5.860   9.435
21910SOL    HW169524   7.065   5.785   9.458
21910SOL    HW269525   7.148   5.912   9.518
21911SOL     OW69526   6.889   6.424   9.352
21911SOL    HW169527   6.923   6.331   9.367
21911SOL    HW269528   6.907   6.451   9.257
21912SOL     OW69529   5.594   6.912   9.510
21912SOL    HW169530   5.501   6.933   9.479
21912SOL    HW269531   5.604   6.813   9.523
21913SOL     OW69532   6.401   6.158   9.635
21913SOL    HW169533   6.408   6.069   9.589
21913SOL    HW269534   6.307   6.192   9.627
21914SOL     OW69535   6.059   6.086   9.501
21914SOL    HW169536   6.120   6.166   9.505
21914SOL    HW269537   5.964   6.117   9.508
21915SOL     OW69538   6.888   6.441   9.619
21915SOL    HW169539   6.802   6.410   9.661
21915SOL    HW269540   6.884   6.427   9.520
21916SOL     OW69541   7.312   5.721   9.833
21916SOL    HW169542   7.385   5.704   9.766
21916SOL    HW269543   7.281   5.634   9.871
21917SOL     OW69544   6.974   7.159   9.787
21917SOL    HW169545   7.041   7.171   9.713
21917SOL    HW269546   6.934   7.248   9.810
21918SOL     OW69547   6.258   7.202   9.464
21918SOL    HW169548   6.267   7.212   9.365
21918SOL    HW269549   6.218   7.113   9.485
21919SOL     OW69550   6.780   7.198   9.341
21919SOL    HW169551   6.786   7.105   9.378
21919SOL    HW269552   6.721   7.198   9.261
21920SOL     OW69553   6.502   6.496   9.601
21920SOL    HW169554   6.565   6.534   9.533
21920SOL    HW269555   6.542   6.413   9.640
21921SOL     OW69556   7.090   7.193   9.354
21921SOL    HW169557   6.998   7.230   9.361
21921SOL    HW269558   7.128   7.213   9.264
21922SOL     OW69559   6.176   7.073   9.801
21922SOL    HW169560   6.218   7.015   9.731
21922SOL    HW269561   6.132   7.152   9.757
21923SOL     OW69562   5.841   6.934   9.600
21923SOL    HW169563   5.745   6.935   9.573
21923SOL    HW269564   5.853   6.987   9.684
21924SOL     OW69565   6.769   6.921   9.429
21924SOL    HW169566   6.670   6.910   9.431
21924SOL    HW269567   6.803   6.936   9.522
21925SOL     OW69568   6.811   5.911   9.759
21925SOL    HW169569   6.876   5.837   9.748
21925SOL    HW269570   6.831   5.961   9.843
21926SOL     OW69571   6.180   6.331   9.962
21926SOL    HW169572   6.230   6.416   9.943
21926SOL    HW269573   6.092   6.333   9.914
21927SOL     OW69574   6.445   6.960   9.326
21927SOL    HW169575   6.399   6.975   9.414
21927SOL    HW269576   6.489   7.045   9.296
21928SOL     OW69577   6.669   6.570   9.397
21928SOL    HW169578   6.646   6.623   9.315
21928SOL    HW269579   6.750   6.514   9.378
21929SOL     OW69580   5.665   6.826   9.963
21929SOL    HW169581   5.664   6.779  10.051
21929SOL    HW269582   5.747   6.798   9.912
21930SOL     OW69583   6.014   6.010   9.830
21930SOL    HW169584   6.044   5.938   9.768
21930SOL    HW269585   5.975   5.970   9.913
21931SOL     OW69586   6.356   6.916   9.611
21931SOL    HW169587   6.310   6.829   9.628
21931SOL    HW269588   6.447   6.913   9.652
21932SOL     OW69589   6.938   5.638   9.478
21932SOL    HW169590   6.973   5.597   9.394
21932SOL    HW269591   6.848   5.600   9.498
21933SOL     OW69592   5.625   6.663   9.610
21933SOL    HW169593   5.724   6.652   9.601
21933SOL    HW269594   5.585   6.577   9.642
21934SOL     OW69595   6.461   7.232   9.647
21934SOL    HW169596   6.384   7.197   9.593
21934SOL    HW269597   6.429   7.303   9.709
21935SOL     OW69598   5.816   8.076   0.113
21935SOL    HW169599   5.723   8.074   0.150
21935SOL    HW269600   5.817   8.037   0.021
21936SOL     OW69601   5.811   7.723   0.996
21936SOL    HW169602   5.846   7.706   1.088
21936SOL    HW269603   5.723   7.678   0.984
21937SOL     OW69604   5.605   7.816   0.647
21937SOL    HW169605   5.523   7.859   0.686
21937SOL    HW269606   5.577   7.743   0.584
21938SOL     OW69607   6.155   8.723   1.165
21938SOL    HW169608   6.062   8.716   1.128
21938SOL    HW269609   6.166   8.812   1.209
21939SOL     OW69610   7.141   8.959   0.703
21939SOL    HW169611   7.084   8.943   0.784
21939SOL    HW269612   7.082   8.969   0.623
21940SOL     OW69613   6.721   8.151   0.717
21940SOL    HW169614   6.778   8.229   0.692
21940SOL    HW269615   6.661   8.177   0.793
21941SOL     OW69616   7.341   8.055   0.231
21941SOL    HW169617   7.329   8.042   0.132
21941SOL    HW269618   7.311   7.974   0.280
21942SOL     OW69619   6.436   8.246   1.823
21942SOL    HW169620   6.432   8.322   1.888
21942SOL    HW269621   6.458   8.282   1.732
21943SOL     OW69622   6.271   8.460   0.665
21943SOL    HW169623   6.340   8.444   0.735
21943SOL    HW269624   6.198   8.517   0.703
21944SOL     OW69625   6.272   8.609   1.803
21944SOL    HW169626   6.332   8.688   1.817
21944SOL    HW269627   6.186   8.640   1.762
21945SOL     OW69628   5.921   8.883   1.061
21945SOL    HW169629   5.843   8.852   1.008
21945SOL    HW269630   5.979   8.941   1.004
21946SOL     OW69631   7.046   8.953   1.339
21946SOL    HW169632   7.070   9.047   1.365
21946SOL    HW269633   7.030   8.899   1.421
21947SOL     OW69634   6.024   7.840   1.499
21947SOL    HW169635   6.106   7.784   1.508
21947SOL    HW269636   5.943   7.782   1.503
21948SOL     OW69637   5.817   9.161   0.483
21948SOL    HW169638   5.851   9.238   0.537
21948SOL    HW269639   5.861   9.161   0.393
21949SOL     OW69640   6.713   8.789   1.690
21949SOL    HW169641   6.760   8.789   1.778
21949SOL    HW269642   6.665   8.702   1.679
21950SOL     OW69643   5.816   8.882   0.538
21950SOL    HW169644   5.790   8.978   0.538
21950SOL    HW269645   5.745   8.828   0.583
21951SOL     OW69646   5.826   8.539   0.886
21951SOL    HW169647   5.840   8.455   0.938
21951SOL    HW269648   5.771   8.603   0.941
21952SOL     OW69649   6.206   9.234   1.439
21952SOL    HW169650   6.114   9.217   1.474
21952SOL    HW269651   6.234   9.326   1.465
21953SOL     OW69652   6.192   8.412   0.123
21953SOL    HW169653   6.199   8.496   0.069
21953SOL    HW269654   6.238   8.425   0.211
21954SOL     OW69655   7.180   7.562   1.480
21954SOL    HW169656   7.162   7.629   1.408
21954SOL    HW269657   7.177   7.608   1.569
21955SOL     OW69658   5.708   8.091   0.563
21955SOL    HW169659   5.663   8.003   0.580
21955SOL    HW269660   5.707   8.145   0.647
21956SOL     OW69661   7.428   9.215   0.359
21956SOL    HW169662   7.482   9.186   0.439
21956SOL    HW269663   7.458   9.305   0.330
21957SOL     OW69664   5.613   9.044   0.117
21957SOL    HW169665   5.594   8.948   0.138
21957SOL    HW269666   5.580   9.102   0.192
21958SOL     OW69667   7.275   8.370   0.612
21958SOL    HW169668   7.370   8.341   0.620
21958SOL    HW269669   7.267   8.435   0.537
21959SOL     OW69670   7.227   8.556   0.432
21959SOL    HW169671   7.313   8.558   0.380
21959SOL    HW269672   7.241   8.603   0.520
21960SOL     OW69673   5.699   8.185   1.597
21960SOL    HW169674   5.787   8.172   1.642
21960SOL    HW269675   5.686   8.282   1.575
21961SOL     OW69676   6.199   8.813   0.726
21961SOL    HW169677   6.150   8.726   0.735
21961SOL    HW269678   6.176   8.856   0.639
21962SOL     OW69679   6.879   8.676   1.423
21962SOL    HW169680   6.916   8.603   1.365
21962SOL    HW269681   6.931   8.681   1.508
21963SOL     OW69682   6.395   7.452   0.502
21963SOL    HW169683   6.435   7.543   0.493
21963SOL    HW269684   6.295   7.460   0.508
21964SOL     OW69685   5.783   8.424   1.264
21964SOL    HW169686   5.872   8.379   1.250
21964SOL    HW269687   5.710   8.359   1.245
21965SOL     OW69688   7.111   8.447   0.190
21965SOL    HW169689   7.048   8.371   0.203
21965SOL    HW269690   7.159   8.465   0.276
21966SOL     OW69691   6.773   9.240   1.616
21966SOL    HW169692   6.797   9.300   1.540
21966SOL    HW269693   6.780   9.145   1.586
21967SOL     OW69694   5.903   7.699   1.801
21967SOL    HW169695   5.974   7.770   1.807
21967SOL    HW269696   5.815   7.738   1.829
21968SOL     OW69697   7.052   8.865   0.953
21968SOL    HW169698   6.993   8.871   1.033
21968SOL    HW269699   7.037   8.777   0.907
21969SOL     OW69700   7.253   9.162   0.572
21969SOL    HW169701   7.212   9.139   0.484
21969SOL    HW269702   7.235   9.088   0.637
21970SOL     OW69703   6.184   8.177   0.270
21970SOL    HW169704   6.208   8.246   0.202
21970SOL    HW269705   6.106   8.210   0.324
21971SOL     OW69706   6.867   7.793   0.944
21971SOL    HW169707   6.781   7.743   0.931
21971SOL    HW269708   6.929   7.739   1.000
21972SOL     OW69709   7.162   9.110   0.307
21972SOL    HW169710   7.251   9.156   0.310
21972SOL    HW269711   7.141   9.086   0.212
21973SOL     OW69712   6.393   8.053   1.465
21973SOL    HW169713   6.346   8.050   1.554
21973SOL    HW269714   6.342   7.998   1.399
21974SOL     OW69715   6.980   7.917   1.674
21974SOL    HW169716   6.960   7.960   1.762
21974SOL    HW269717   7.058   7.855   1.683
21975SOL     OW69718   6.559   8.338   1.572
21975SOL    HW169719   6.605   8.254   1.543
21975SOL    HW269720   6.503   8.372   1.497
21976SOL     OW69721   6.577   7.858   1.242
21976SOL    HW169722   6.500   7.892   1.296
21976SOL    HW269723   6.543   7.807   1.163
21977SOL     OW69724   6.627   8.149   0.429
21977SOL    HW169725   6.653   8.145   0.525
21977SOL    HW269726   6.542   8.098   0.415
21978SOL     OW69727   5.662   8.259   0.789
21978SOL    HW169728   5.761   8.247   0.798
21978SOL    HW269729   5.638   8.354   0.810
21979SOL     OW69730   5.716   9.269   1.571
21979SOL    HW169731   5.706   9.254   1.670
21979SOL    HW269732   5.630   9.305   1.535
21980SOL     OW69733   6.451   7.796   0.195
21980SOL    HW169734   6.510   7.859   0.146
21980SOL    HW269735   6.470   7.702   0.166
21981SOL     OW69736   7.305   8.033   1.831
21981SOL    HW169737   7.279   8.122   1.795
21981SOL    HW269738   7.303   7.965   1.758
21982SOL     OW69739   6.948   8.592   0.545
21982SOL    HW169740   7.031   8.563   0.497
21982SOL    HW269741   6.899   8.659   0.489
21983SOL     OW69742   6.136   7.644   0.885
21983SOL    HW169743   6.131   7.639   0.985
21983SOL    HW269744   6.138   7.740   0.856
21984SOL     OW69745   5.937   9.249   0.853
21984SOL    HW169746   5.987   9.163   0.859
21984SOL    HW269747   6.002   9.326   0.850
21985SOL     OW69748   7.381   8.514   0.873
21985SOL    HW169749   7.319   8.499   0.797
21985SOL    HW269750   7.329   8.525   0.958
21986SOL     OW69751   6.813   8.998   1.506
21986SOL    HW169752   6.819   8.921   1.570
21986SOL    HW269753   6.761   8.972   1.426
21987SOL     OW69754   5.907   8.391   0.242
21987SOL    HW169755   5.989   8.430   0.200
21987SOL    HW269756   5.880   8.309   0.193
21988SOL     OW69757   7.044   8.183   0.728
21988SOL    HW169758   7.039   8.118   0.803
21988SOL    HW269759   7.124   8.242   0.741
21989SOL     OW69760   6.047   8.714   1.727
21989SOL    HW169761   5.997   8.715   1.641
21989SOL    HW269762   5.984   8.696   1.803
21990SOL     OW69763   5.788   7.733   1.498
21990SOL    HW169764   5.708   7.793   1.485
21990SOL    HW269765   5.778   7.684   1.584
21991SOL     OW69766   7.218   8.825   0.081
21991SOL    HW169767   7.186   8.919   0.071
21991SOL    HW269768   7.142   8.762   0.069
21992SOL     OW69769   6.050   9.191   0.323
21992SOL    HW169770   6.083   9.230   0.409
21992SOL    HW269771   6.126   9.184   0.258
21993SOL     OW69772   5.835   9.233   1.241
21993SOL    HW169773   5.892   9.168   1.291
21993SOL    HW269774   5.819   9.200   1.148
21994SOL     OW69775   6.526   9.146   0.904
21994SOL    HW169776   6.606   9.089   0.925
21994SOL    HW269777   6.477   9.106   0.827
21995SOL     OW69778   5.968   8.148   0.480
21995SOL    HW169779   6.013   8.058   0.477
21995SOL    HW269780   5.874   8.137   0.513
21996SOL     OW69781   7.133   7.670   1.729
21996SOL    HW169782   7.128   7.707   1.821
21996SOL    HW269783   7.061   7.601   1.717
21997SOL     OW69784   6.200   7.570   0.117
21997SOL    HW169785   6.298   7.548   0.124
21997SOL    HW269786   6.169   7.553   0.024
21998SOL     OW69787   6.367   7.712   1.749
21998SOL    HW169788   6.434   7.651   1.792
21998SOL    HW269789   6.294   7.731   1.814
21999SOL     OW69790   6.474   8.962   1.195
21999SOL    HW169791   6.451   8.937   1.101
21999SOL    HW269792   6.535   8.893   1.234
22000SOL     OW69793   6.937   8.038   1.433
22000SOL    HW169794   6.965   7.995   1.518
22000SOL    HW269795   6.962   8.134   1.434
22001SOL     OW69796   6.389   8.850   0.924
22001SOL    HW169797   6.479   8.864   0.882
22001SOL    HW269798   6.318   8.852   0.853
22002SOL     OW69799   6.508   7.951   0.899
22002SOL    HW169800   6.483   7.942   0.803
22002SOL    HW269801   6.556   7.869   0.930
22003SOL     OW69802   6.125   7.512   0.512
22003SOL    HW169803   6.044   7.513   0.570
22003SOL    HW269804   6.128   7.595   0.457
22004SOL     OW69805   7.020   8.636   0.041
22004SOL    HW169806   7.052   8.560   0.098
22004SOL    HW269807   6.928   8.663   0.071
22005SOL     OW69808   6.521   7.684   0.480
22005SOL    HW169809   6.473   7.725   0.402
22005SOL    HW269810   6.620   7.682   0.461
22006SOL     OW69811   6.662   8.131   1.464
22006SOL    HW169812   6.582   8.070   1.467
22006SOL    HW269813   6.743   8.078   1.440
22007SOL     OW69814   6.813   9.018   0.793
22007SOL    HW169815   6.834   9.092   0.728
22007SOL    HW269816   6.881   9.018   0.866
22008SOL     OW69817   6.045   8.600   0.741
22008SOL    HW169818   5.974   8.573   0.806
22008SOL    HW269819   6.019   8.572   0.648
22009SOL     OW69820   6.857   9.245   0.591
22009SOL    HW169821   6.901   9.309   0.527
22009SOL    HW269822   6.807   9.297   0.661
22010SOL     OW69823   6.618   7.997   0.016
22010SOL    HW169824   6.577   8.079  -0.023
22010SOL    HW269825   6.682   8.023   0.089
22011SOL     OW69826   5.664   8.004   1.386
22011SOL    HW169827   5.756   8.003   1.345
22011SOL    HW269828   5.658   8.078   1.453
22012SOL     OW69829   6.147   7.670   1.147
22012SOL    HW169830   6.185   7.586   1.184
22012SOL    HW269831   6.059   7.689   1.191
22013SOL     OW69832   6.452   7.902   0.642
22013SOL    HW169833   6.420   7.974   0.580
22013SOL    HW269834   6.476   7.821   0.589
22014SOL     OW69835   6.603   7.487   0.753
22014SOL    HW169836   6.531   7.492   0.684
22014SOL    HW269837   6.579   7.418   0.822
22015SOL     OW69838   7.015   8.621   0.867
22015SOL    HW169839   6.960   8.537   0.860
22015SOL    HW269840   7.041   8.650   0.775
22016SOL     OW69841   7.052   8.038   0.992
22016SOL    HW169842   7.022   7.943   0.999
22016SOL    HW269843   7.125   8.054   1.058
22017SOL     OW69844   7.443   8.281   0.377
22017SOL    HW169845   7.485   8.217   0.441
22017SOL    HW269846   7.405   8.230   0.299
22018SOL     OW69847   6.074   8.833   0.174
22018SOL    HW169848   5.987   8.818   0.221
22018SOL    HW269849   6.057   8.859   0.079
22019SOL     OW69850   7.250   8.728   0.657
22019SOL    HW169851   7.349   8.736   0.671
22019SOL    HW269852   7.205   8.812   0.688
22020SOL     OW69853   6.976   8.023   0.078
22020SOL    HW169854   6.922   8.002   0.159
22020SOL    HW269855   7.067   7.982   0.087
22021SOL     OW69856   6.113   7.704   0.328
22021SOL    HW169857   6.140   7.645   0.253
22021SOL    HW269858   6.113   7.799   0.297
22022SOL     OW69859   7.340   8.671   1.588
22022SOL    HW169860   7.431   8.632   1.575
22022SOL    HW269861   7.348   8.767   1.612
22023SOL     OW69862   6.650   8.795   1.340
22023SOL    HW169863   6.570   8.772   1.395
22023SOL    HW269864   6.733   8.769   1.389
22024SOL     OW69865   7.178   9.077   1.625
22024SOL    HW169866   7.205   9.111   1.535
22024SOL    HW269867   7.257   9.039   1.671
22025SOL     OW69868   7.224   8.547   1.079
22025SOL    HW169869   7.229   8.628   1.138
22025SOL    HW269870   7.138   8.549   1.028
22026SOL     OW69871   6.501   7.537   1.402
22026SOL    HW169872   6.526   7.517   1.307
22026SOL    HW269873   6.573   7.593   1.444
22027SOL     OW69874   6.566   8.564   1.719
22027SOL    HW169875   6.467   8.570   1.729
22027SOL    HW269876   6.589   8.484   1.663
22028SOL     OW69877   6.291   8.498   0.368
22028SOL    HW169878   6.277   8.505   0.467
22028SOL    HW269879   6.375   8.447   0.350
22029SOL     OW69880   5.996   8.261   1.251
22029SOL    HW169881   6.082   8.273   1.301
22029SOL    HW269882   5.954   8.174   1.278
22030SOL     OW69883   6.860   7.834   1.262
22030SOL    HW169884   6.881   7.908   1.326
22030SOL    HW269885   6.771   7.851   1.219
22031SOL     OW69886   5.953   8.548   0.501
22031SOL    HW169887   5.946   8.631   0.445
22031SOL    HW269888   5.957   8.468   0.441
22032SOL     OW69889   6.152   7.985   0.865
22032SOL    HW169890   6.164   8.051   0.791
22032SOL    HW269891   6.198   8.019   0.948
22033SOL     OW69892   6.838   8.796   0.388
22033SOL    HW169893   6.888   8.873   0.428
22033SOL    HW269894   6.743   8.798   0.420
22034SOL     OW69895   6.858   8.893   1.142
22034SOL    HW169896   6.905   8.906   1.229
22034SOL    HW269897   6.792   8.819   1.151
22035SOL     OW69898   7.168   8.087   0.472
22035SOL    HW169899   7.137   8.148   0.545
22035SOL    HW269900   7.218   8.139   0.403
22036SOL     OW69901   5.940   8.958   1.329
22036SOL    HW169902   5.919   8.914   1.242
22036SOL    HW269903   6.037   8.984   1.332
22037SOL     OW69904   5.988   8.199   1.598
22037SOL    HW169905   6.056   8.254   1.551
22037SOL    HW269906   6.028   8.111   1.625
22038SOL     OW69907   7.173   8.227   1.670
22038SOL    HW169908   7.081   8.265   1.665
22038SOL    HW269909   7.233   8.274   1.605
22039SOL     OW69910   6.599   7.553   1.770
22039SOL    HW169911   6.605   7.638   1.718
22039SOL    HW269912   6.631   7.477   1.713
22040SOL     OW69913   6.090   7.498   1.740
22040SOL    HW169914   6.048   7.441   1.670
22040SOL    HW269915   6.024   7.567   1.772
22041SOL     OW69916   6.159   8.318   1.029
22041SOL    HW169917   6.203   8.407   1.020
22041SOL    HW269918   6.096   8.318   1.106
22042SOL     OW69919   6.946   8.310   1.045
22042SOL    HW169920   6.871   8.310   0.979
22042SOL    HW269921   6.983   8.218   1.054
22043SOL     OW69922   6.795   7.973   0.275
22043SOL    HW169923   6.808   7.889   0.329
22043SOL    HW269924   6.766   8.047   0.335
22044SOL     OW69925   5.893   7.661   1.231
22044SOL    HW169926   5.870   7.698   1.321
22044SOL    HW269927   5.863   7.566   1.225
22045SOL     OW69928   6.318   8.082   1.064
22045SOL    HW169929   6.377   8.056   0.988
22045SOL    HW269930   6.290   8.178   1.053
22046SOL     OW69931   7.314   8.383   1.854
22046SOL    HW169932   7.268   8.376   1.765
22046SOL    HW269933   7.252   8.427   1.920
22047SOL     OW69934   5.893   7.511   0.618
22047SOL    HW169935   5.882   7.605   0.651
22047SOL    HW269936   5.888   7.448   0.695
22048SOL     OW69937   6.566   9.021   1.700
22048SOL    HW169938   6.546   9.065   1.612
22048SOL    HW269939   6.605   8.930   1.684
22049SOL     OW69940   7.445   8.966   1.605
22049SOL    HW169941   7.459   8.993   1.510
22049SOL    HW269942   7.528   8.988   1.658
22050SOL     OW69943   5.936   8.346   1.804
22050SOL    HW169944   6.012   8.390   1.852
22050SOL    HW269945   5.971   8.299   1.722
22051SOL     OW69946   7.126   7.722   0.125
22051SOL    HW169947   7.065   7.647   0.148
22051SOL    HW269948   7.148   7.774   0.208
22052SOL     OW69949   6.654   8.781   0.849
22052SOL    HW169950   6.661   8.697   0.794
22052SOL    HW269951   6.716   8.850   0.813
22053SOL     OW69952   5.905   8.258   0.949
22053SOL    HW169953   5.998   8.294   0.954
22053SOL    HW269954   5.899   8.173   1.001
22054SOL     OW69955   5.925   7.957   1.006
22054SOL    HW169956   5.873   7.874   0.989
22054SOL    HW269957   6.002   7.962   0.942
22055SOL     OW69958   6.724   7.828   1.678
22055SOL    HW169959   6.679   7.891   1.742
22055SOL    HW269960   6.817   7.859   1.661
22056SOL     OW69961   6.746   7.655   1.477
22056SOL    HW169962   6.746   7.719   1.554
22056SOL    HW269963   6.774   7.703   1.394
22057SOL     OW69964   5.594   8.774   0.200
22057SOL    HW169965   5.501   8.795   0.169
22057SOL    HW269966   5.604   8.675   0.213
22058SOL     OW69967   5.674   9.249   0.927
22058SOL    HW169968   5.632   9.163   0.900
22058SOL    HW269969   5.768   9.252   0.893
22059SOL     OW69970   6.090   9.016   0.910
22059SOL    HW169971   6.156   9.090   0.919
22059SOL    HW269972   6.134   8.937   0.868
22060SOL     OW69973   6.588   8.244   1.238
22060SOL    HW169974   6.629   8.212   1.324
22060SOL    HW269975   6.492   8.217   1.235
22061SOL     OW69976   5.626   7.992   1.114
22061SOL    HW169977   5.711   7.959   1.073
22061SOL    HW269978   5.639   8.007   1.212
22062SOL     OW69979   5.775   7.968   1.722
22062SOL    HW169980   5.834   7.928   1.652
22062SOL    HW269981   5.717   8.039   1.681
22063SOL     OW69982   6.955   8.398   1.660
22063SOL    HW169983   6.994   8.487   1.680
22063SOL    HW269984   6.965   8.378   1.563
22064SOL     OW69985   6.401   8.020   0.325
22064SOL    HW169986   6.408   7.931   0.279
22064SOL    HW269987   6.307   8.054   0.317
22065SOL     OW69988   7.243   8.052   1.206
22065SOL    HW169989   7.205   7.983   1.268
22065SOL    HW269990   7.325   8.016   1.162
22066SOL     OW69991   5.838   9.012   1.744
22066SOL    HW169992   5.808   9.069   1.820
22066SOL    HW269993   5.831   8.915   1.770
22067SOL     OW69994   6.257   7.912   1.269
22067SOL    HW169995   6.223   7.823   1.239
22067SOL    HW269996   6.283   7.966   1.189
22068SOL     OW69997   6.516   9.126   1.465
22068SOL    HW169998   6.492   9.108   1.370
22068SOL    HW269999   6.546   9.220   1.475
22069SOL     OW70000   6.059   7.948   0.191
22069SOL    HW170001   6.120   8.028   0.195
22069SOL    HW270002   5.964   7.979   0.198
22070SOL     OW70003   6.888   8.303   0.309
22070SOL    HW170004   6.802   8.272   0.351
22070SOL    HW270005   6.884   8.289   0.210
22071SOL     OW70006   7.345   9.195   1.154
22071SOL    HW170007   7.406   9.225   1.081
22071SOL    HW270008   7.307   9.106   1.132
22072SOL     OW70009   6.838   9.179   1.128
22072SOL    HW170010   6.922   9.184   1.074
22072SOL    HW270011   6.815   9.083   1.146
22073SOL     OW70012   5.669   8.706   1.022
22073SOL    HW170013   5.664   8.705   1.122
22073SOL    HW270014   5.586   8.665   0.984
22074SOL     OW70015   6.274   9.110   1.716
22074SOL    HW170016   6.218   9.191   1.725
22074SOL    HW270017   6.326   9.114   1.630
22075SOL     OW70018   6.974   9.021   0.477
22075SOL    HW170019   7.041   9.033   0.403
22075SOL    HW270020   6.934   9.110   0.500
22076SOL     OW70021   5.716   9.242   1.851
22076SOL    HW170022   5.675   9.168   1.904
22076SOL    HW270023   5.780   9.293   1.909
22077SOL     OW70024   6.866   8.375   0.672
22077SOL    HW170025   6.926   8.294   0.674
22077SOL    HW270026   6.906   8.444   0.612
22078SOL     OW70027   6.416   8.721   1.422
22078SOL    HW170028   6.411   8.754   1.517
22078SOL    HW270029   6.330   8.740   1.376
22079SOL     OW70030   6.258   9.064   0.154
22079SOL    HW170031   6.267   9.074   0.055
22079SOL    HW270032   6.218   8.975   0.175
22080SOL     OW70033   7.236   9.168   1.394
22080SOL    HW170034   7.289   9.178   1.310
22080SOL    HW270035   7.209   9.258   1.428
22081SOL     OW70036   5.849   7.774   0.720
22081SOL    HW170037   5.770   7.825   0.686
22081SOL    HW270038   5.840   7.759   0.818
22082SOL     OW70039   6.502   8.358   0.291
22082SOL    HW170040   6.565   8.396   0.223
22082SOL    HW270041   6.542   8.275   0.330
22083SOL     OW70042   7.090   9.055   0.044
22083SOL    HW170043   6.998   9.092   0.051
22083SOL    HW270044   7.128   9.075  -0.046
22084SOL     OW70045   7.200   8.740   1.289
22084SOL    HW170046   7.260   8.743   1.369
22084SOL    HW270047   7.125   8.804   1.302
22085SOL     OW70048   6.625   8.546   0.696
22085SOL    HW170049   6.555   8.499   0.750
22085SOL    HW270050   6.684   8.478   0.653
22086SOL     OW70051   6.600   7.684   0.971
22086SOL    HW170052   6.592   7.648   0.878
22086SOL    HW270053   6.598   7.608   1.036
22087SOL     OW70054   6.176   8.935   0.491
22087SOL    HW170055   6.218   8.877   0.421
22087SOL    HW270056   6.132   9.014   0.447
22088SOL     OW70057   7.295   7.833   1.381
22088SOL    HW170058   7.368   7.902   1.385
22088SOL    HW270059   7.323   7.758   1.322
22089SOL     OW70060   5.841   8.796   0.290
22089SOL    HW170061   5.745   8.797   0.263
22089SOL    HW270062   5.853   8.849   0.374
22090SOL     OW70063   5.691   8.461   1.726
22090SOL    HW170064   5.614   8.428   1.780
22090SOL    HW270065   5.776   8.431   1.768
22091SOL     OW70066   6.258   7.651   1.489
22091SOL    HW170067   6.348   7.635   1.449
22091SOL    HW270068   6.266   7.656   1.588
22092SOL     OW70069   5.661   7.793   0.033
22092SOL    HW170070   5.569   7.765   0.004
22092SOL    HW270071   5.692   7.870  -0.023
22093SOL     OW70072   7.026   8.304   1.398
22093SOL    HW170073   6.969   8.356   1.335
22093SOL    HW270074   7.122   8.316   1.374
22094SOL     OW70075   6.769   8.783   0.119
22094SOL    HW170076   6.670   8.772   0.121
22094SOL    HW270077   6.803   8.798   0.212
22095SOL     OW70078   6.199   8.290   1.431
22095SOL    HW170079   6.255   8.371   1.414
22095SOL    HW270080   6.258   8.210   1.434
22096SOL     OW70081   7.079   9.215   0.959
22096SOL    HW170082   7.112   9.279   0.890
22096SOL    HW270083   7.145   9.209   1.034
22097SOL     OW70084   6.302   8.013   1.708
22097SOL    HW170085   6.321   8.078   1.782
22097SOL    HW270086   6.362   7.933   1.717
22098SOL     OW70087   7.036   8.668   1.633
22098SOL    HW170088   7.027   8.658   1.732
22098SOL    HW270089   7.132   8.661   1.607
22099SOL     OW70090   5.976   9.189   1.560
22099SOL    HW170091   5.885   9.230   1.558
22099SOL    HW270092   5.969   9.095   1.592
22100SOL     OW70093   7.260   8.331   1.254
22100SOL    HW170094   7.233   8.242   1.217
22100SOL    HW270095   7.261   8.399   1.181
22101SOL     OW70096   6.811   7.773   0.449
22101SOL    HW170097   6.876   7.699   0.438
22101SOL    HW270098   6.831   7.823   0.533
22102SOL     OW70099   6.180   8.193   0.652
22102SOL    HW170100   6.230   8.278   0.633
22102SOL    HW270101   6.092   8.195   0.604
22103SOL     OW70102   7.363   7.790   1.642
22103SOL    HW170103   7.346   7.821   1.548
22103SOL    HW270104   7.279   7.753   1.680
22104SOL     OW70105   7.316   8.382   1.517
22104SOL    HW170106   7.354   8.473   1.532
22104SOL    HW270107   7.308   8.365   1.418
22105SOL     OW70108   6.445   8.822   0.016
22105SOL    HW170109   6.399   8.837   0.104
22105SOL    HW270110   6.489   8.907  -0.014
22106SOL     OW70111   6.247   9.238   0.953
22106SOL    HW170112   6.201   9.326   0.940
22106SOL    HW270113   6.346   9.250   0.946
22107SOL     OW70114   6.669   8.432   0.087
22107SOL    HW170115   6.646   8.485   0.005
22107SOL    HW270116   6.750   8.376   0.068
22108SOL     OW70117   7.447   9.017   0.851
22108SOL    HW170118   7.376   9.005   0.781
22108SOL    HW270119   7.448   8.938   0.911
22109SOL     OW70120   5.807   8.762   1.844
22109SOL    HW170121   5.742   8.689   1.823
22109SOL    HW270122   5.811   8.776   1.942
22110SOL     OW70123   5.665   8.688   0.653
22110SOL    HW170124   5.664   8.641   0.741
22110SOL    HW270125   5.747   8.660   0.602
22111SOL     OW70126   6.258   8.839   1.624
22111SOL    HW170127   6.180   8.789   1.662
22111SOL    HW270128   6.255   8.934   1.655
22112SOL     OW70129   7.410   7.640   1.227
22112SOL    HW170130   7.406   7.550   1.271
22112SOL    HW270131   7.413   7.629   1.128
22113SOL     OW70132   6.014   7.872   0.520
22113SOL    HW170133   6.044   7.800   0.458
22113SOL    HW270134   5.975   7.832   0.603
22114SOL     OW70135   7.291   8.935   1.104
22114SOL    HW170136   7.198   8.910   1.077
22114SOL    HW270137   7.317   8.885   1.186
22115SOL     OW70138   5.903   7.995   1.280
22115SOL    HW170139   5.941   7.936   1.352
22115SOL    HW270140   5.943   7.969   1.192
22116SOL     OW70141   6.398   9.034   0.687
22116SOL    HW170142   6.430   9.044   0.593
22116SOL    HW270143   6.319   8.972   0.689
22117SOL     OW70144   7.010   7.662   1.112
22117SOL    HW170145   7.062   7.597   1.167
22117SOL    HW270146   6.961   7.725   1.173
22118SOL     OW70147   6.587   7.482   1.154
22118SOL    HW170148   6.524   7.410   1.123
22118SOL    HW270149   6.680   7.446   1.154
22119SOL     OW70150   6.356   8.778   0.301
22119SOL    HW170151   6.310   8.691   0.318
22119SOL    HW270152   6.447   8.775   0.342
22120SOL     OW70153   6.204   9.015   1.284
22120SOL    HW170154   6.199   9.097   1.341
22120SOL    HW270155   6.293   9.012   1.239
22121SOL     OW70156   6.886   7.901   0.691
22121SOL    HW170157   6.827   7.981   0.695
22121SOL    HW270158   6.901   7.866   0.784
22122SOL     OW70159   5.625   8.525   0.300
22122SOL    HW170160   5.724   8.514   0.291
22122SOL    HW270161   5.585   8.439   0.332
22123SOL     OW70162   5.816   8.076   1.975
22123SOL    HW170163   5.723   8.074   2.012
22123SOL    HW270164   5.817   8.037   1.883
22124SOL     OW70165   5.811   7.723   2.858
22124SOL    HW170166   5.846   7.706   2.950
22124SOL    HW270167   5.723   7.678   2.846
22125SOL     OW70168   5.605   7.816   2.509
22125SOL    HW170169   5.523   7.859   2.548
22125SOL    HW270170   5.577   7.743   2.446
22126SOL     OW70171   6.155   8.723   3.027
22126SOL    HW170172   6.062   8.716   2.990
22126SOL    HW270173   6.166   8.812   3.071
22127SOL     OW70174   7.141   8.959   2.565
22127SOL    HW170175   7.084   8.943   2.646
22127SOL    HW270176   7.082   8.969   2.485
22128SOL     OW70177   6.721   8.151   2.579
22128SOL    HW170178   6.778   8.229   2.554
22128SOL    HW270179   6.661   8.177   2.655
22129SOL     OW70180   7.341   8.055   2.093
22129SOL    HW170181   7.329   8.042   1.994
22129SOL    HW270182   7.311   7.974   2.142
22130SOL     OW70183   6.354   8.592   2.885
22130SOL    HW170184   6.276   8.609   2.945
22130SOL    HW270185   6.388   8.679   2.849
22131SOL     OW70186   6.436   8.246   3.685
22131SOL    HW170187   6.432   8.322   3.750
22131SOL    HW270188   6.458   8.282   3.594
22132SOL     OW70189   6.271   8.460   2.527
22132SOL    HW170190   6.340   8.444   2.597
22132SOL    HW270191   6.198   8.517   2.565
22133SOL     OW70192   6.272   8.609   3.665
22133SOL    HW170193   6.332   8.688   3.679
22133SOL    HW270194   6.186   8.640   3.624
22134SOL     OW70195   5.921   8.883   2.923
22134SOL    HW170196   5.843   8.852   2.870
22134SOL    HW270197   5.979   8.941   2.866
22135SOL     OW70198   7.046   8.953   3.201
22135SOL    HW170199   7.070   9.047   3.227
22135SOL    HW270200   7.030   8.899   3.283
22136SOL     OW70201   6.024   7.840   3.361
22136SOL    HW170202   6.106   7.784   3.370
22136SOL    HW270203   5.943   7.782   3.365
22137SOL     OW70204   7.189   7.895   2.599
22137SOL    HW170205   7.115   7.941   2.549
22137SOL    HW270206   7.240   7.963   2.652
22138SOL     OW70207   5.817   9.161   2.345
22138SOL    HW170208   5.851   9.238   2.399
22138SOL    HW270209   5.861   9.161   2.255
22139SOL     OW70210   6.713   8.789   3.552
22139SOL    HW170211   6.760   8.789   3.640
22139SOL    HW270212   6.665   8.702   3.541
22140SOL     OW70213   5.816   8.882   2.400
22140SOL    HW170214   5.790   8.978   2.400
22140SOL    HW270215   5.745   8.828   2.445
22141SOL     OW70216   5.826   8.539   2.748
22141SOL    HW170217   5.840   8.455   2.800
22141SOL    HW270218   5.771   8.603   2.803
22142SOL     OW70219   6.206   9.234   3.301
22142SOL    HW170220   6.114   9.217   3.336
22142SOL    HW270221   6.234   9.326   3.327
22143SOL     OW70222   6.192   8.412   1.985
22143SOL    HW170223   6.199   8.496   1.931
22143SOL    HW270224   6.238   8.425   2.073
22144SOL     OW70225   7.180   7.562   3.342
22144SOL    HW170226   7.162   7.629   3.270
22144SOL    HW270227   7.177   7.608   3.431
22145SOL     OW70228   5.708   8.091   2.425
22145SOL    HW170229   5.663   8.003   2.442
22145SOL    HW270230   5.707   8.145   2.509
22146SOL     OW70231   5.613   9.044   1.979
22146SOL    HW170232   5.594   8.948   2.000
22146SOL    HW270233   5.580   9.102   2.054
22147SOL     OW70234   7.275   8.370   2.474
22147SOL    HW170235   7.370   8.341   2.482
22147SOL    HW270236   7.267   8.435   2.399
22148SOL     OW70237   7.227   8.556   2.294
22148SOL    HW170238   7.313   8.558   2.242
22148SOL    HW270239   7.241   8.603   2.382
22149SOL     OW70240   5.699   8.185   3.459
22149SOL    HW170241   5.787   8.172   3.504
22149SOL    HW270242   5.686   8.282   3.437
22150SOL     OW70243   6.199   8.813   2.588
22150SOL    HW170244   6.150   8.726   2.597
22150SOL    HW270245   6.176   8.856   2.501
22151SOL     OW70246   6.879   8.676   3.285
22151SOL    HW170247   6.916   8.603   3.227
22151SOL    HW270248   6.931   8.681   3.370
22152SOL     OW70249   6.395   7.452   2.364
22152SOL    HW170250   6.435   7.543   2.355
22152SOL    HW270251   6.295   7.460   2.370
22153SOL     OW70252   5.783   8.424   3.126
22153SOL    HW170253   5.872   8.379   3.112
22153SOL    HW270254   5.710   8.359   3.107
22154SOL     OW70255   7.111   8.447   2.052
22154SOL    HW170256   7.048   8.371   2.065
22154SOL    HW270257   7.159   8.465   2.138
22155SOL     OW70258   6.773   9.240   3.478
22155SOL    HW170259   6.797   9.300   3.402
22155SOL    HW270260   6.780   9.145   3.448
22156SOL     OW70261   5.903   7.699   3.663
22156SOL    HW170262   5.974   7.770   3.669
22156SOL    HW270263   5.815   7.738   3.691
22157SOL     OW70264   7.052   8.865   2.815
22157SOL    HW170265   6.993   8.871   2.895
22157SOL    HW270266   7.037   8.777   2.769
22158SOL     OW70267   6.184   8.177   2.132
22158SOL    HW170268   6.208   8.246   2.064
22158SOL    HW270269   6.106   8.210   2.186
22159SOL     OW70270   6.867   7.793   2.806
22159SOL    HW170271   6.781   7.743   2.793
22159SOL    HW270272   6.929   7.739   2.862
22160SOL     OW70273   7.162   9.110   2.169
22160SOL    HW170274   7.251   9.156   2.172
22160SOL    HW270275   7.141   9.086   2.074
22161SOL     OW70276   6.393   8.053   3.327
22161SOL    HW170277   6.346   8.050   3.416
22161SOL    HW270278   6.342   7.998   3.261
22162SOL     OW70279   6.980   7.917   3.536
22162SOL    HW170280   6.960   7.960   3.624
22162SOL    HW270281   7.058   7.855   3.545
22163SOL     OW70282   6.559   8.338   3.434
22163SOL    HW170283   6.605   8.254   3.405
22163SOL    HW270284   6.503   8.372   3.359
22164SOL     OW70285   6.577   7.858   3.104
22164SOL    HW170286   6.500   7.892   3.158
22164SOL    HW270287   6.543   7.807   3.025
22165SOL     OW70288   6.627   8.149   2.291
22165SOL    HW170289   6.653   8.145   2.387
22165SOL    HW270290   6.542   8.098   2.277
22166SOL     OW70291   5.662   8.259   2.651
22166SOL    HW170292   5.761   8.247   2.660
22166SOL    HW270293   5.638   8.354   2.672
22167SOL     OW70294   5.716   9.269   3.433
22167SOL    HW170295   5.706   9.254   3.532
22167SOL    HW270296   5.630   9.305   3.397
22168SOL     OW70297   6.451   7.796   2.057
22168SOL    HW170298   6.510   7.859   2.008
22168SOL    HW270299   6.470   7.702   2.028
22169SOL     OW70300   7.305   8.033   3.693
22169SOL    HW170301   7.279   8.122   3.657
22169SOL    HW270302   7.303   7.965   3.620
22170SOL     OW70303   6.948   8.592   2.407
22170SOL    HW170304   7.031   8.563   2.359
22170SOL    HW270305   6.899   8.659   2.351
22171SOL     OW70306   6.136   7.644   2.747
22171SOL    HW170307   6.131   7.639   2.847
22171SOL    HW270308   6.138   7.740   2.718
22172SOL     OW70309   6.594   8.904   2.339
22172SOL    HW170310   6.548   8.976   2.287
22172SOL    HW270311   6.590   8.924   2.437
22173SOL     OW70312   5.937   9.249   2.715
22173SOL    HW170313   5.987   9.163   2.721
22173SOL    HW270314   6.002   9.326   2.712
22174SOL     OW70315   7.381   8.514   2.735
22174SOL    HW170316   7.319   8.499   2.659
22174SOL    HW270317   7.329   8.525   2.820
22175SOL     OW70318   6.813   8.998   3.368
22175SOL    HW170319   6.819   8.921   3.432
22175SOL    HW270320   6.761   8.972   3.288
22176SOL     OW70321   5.907   8.391   2.104
22176SOL    HW170322   5.989   8.430   2.062
22176SOL    HW270323   5.880   8.309   2.055
22177SOL     OW70324   7.044   8.183   2.590
22177SOL    HW170325   7.039   8.118   2.665
22177SOL    HW270326   7.124   8.242   2.603
22178SOL     OW70327   6.047   8.714   3.589
22178SOL    HW170328   5.997   8.715   3.503
22178SOL    HW270329   5.984   8.696   3.665
22179SOL     OW70330   6.697   9.224   2.099
22179SOL    HW170331   6.637   9.162   2.149
22179SOL    HW270332   6.728   9.180   2.014
22180SOL     OW70333   5.788   7.733   3.360
22180SOL    HW170334   5.708   7.793   3.347
22180SOL    HW270335   5.778   7.684   3.446
22181SOL     OW70336   7.218   8.825   1.943
22181SOL    HW170337   7.186   8.919   1.933
22181SOL    HW270338   7.142   8.762   1.931
22182SOL     OW70339   6.050   9.191   2.185
22182SOL    HW170340   6.083   9.230   2.271
22182SOL    HW270341   6.126   9.184   2.120
22183SOL     OW70342   6.986   7.555   2.288
22183SOL    HW170343   6.962   7.518   2.198
22183SOL    HW270344   7.085   7.571   2.292
22184SOL     OW70345   5.835   9.233   3.103
22184SOL    HW170346   5.892   9.168   3.153
22184SOL    HW270347   5.819   9.200   3.010
22185SOL     OW70348   6.526   9.146   2.766
22185SOL    HW170349   6.606   9.089   2.787
22185SOL    HW270350   6.477   9.106   2.689
22186SOL     OW70351   5.968   8.148   2.342
22186SOL    HW170352   6.013   8.058   2.339
22186SOL    HW270353   5.874   8.137   2.375
22187SOL     OW70354   7.133   7.670   3.591
22187SOL    HW170355   7.128   7.707   3.683
22187SOL    HW270356   7.061   7.601   3.579
22188SOL     OW70357   6.200   7.570   1.979
22188SOL    HW170358   6.298   7.548   1.986
22188SOL    HW270359   6.169   7.553   1.886
22189SOL     OW70360   6.367   7.712   3.611
22189SOL    HW170361   6.434   7.651   3.654
22189SOL    HW270362   6.294   7.731   3.676
22190SOL     OW70363   6.474   8.962   3.057
22190SOL    HW170364   6.451   8.937   2.963
22190SOL    HW270365   6.535   8.893   3.096
22191SOL     OW70366   6.937   8.038   3.295
22191SOL    HW170367   6.965   7.995   3.380
22191SOL    HW270368   6.962   8.134   3.296
22192SOL     OW70369   6.389   8.850   2.786
22192SOL    HW170370   6.479   8.864   2.744
22192SOL    HW270371   6.318   8.852   2.715
22193SOL     OW70372   6.508   7.951   2.761
22193SOL    HW170373   6.483   7.942   2.665
22193SOL    HW270374   6.556   7.869   2.792
22194SOL     OW70375   6.125   7.512   2.374
22194SOL    HW170376   6.044   7.513   2.432
22194SOL    HW270377   6.128   7.595   2.319
22195SOL     OW70378   7.020   8.636   1.903
22195SOL    HW170379   7.052   8.560   1.960
22195SOL    HW270380   6.928   8.663   1.933
22196SOL     OW70381   5.883   7.483   2.033
22196SOL    HW170382   5.932   7.567   2.012
22196SOL    HW270383   5.945   7.418   2.078
22197SOL     OW70384   6.521   7.684   2.342
22197SOL    HW170385   6.473   7.725   2.264
22197SOL    HW270386   6.620   7.682   2.323
22198SOL     OW70387   6.662   8.131   3.326
22198SOL    HW170388   6.582   8.070   3.329
22198SOL    HW270389   6.743   8.078   3.302
22199SOL     OW70390   6.813   9.018   2.655
22199SOL    HW170391   6.834   9.092   2.590
22199SOL    HW270392   6.881   9.018   2.728
22200SOL     OW70393   6.045   8.600   2.603
22200SOL    HW170394   5.974   8.573   2.668
22200SOL    HW270395   6.019   8.572   2.510
22201SOL     OW70396   6.857   9.245   2.453
22201SOL    HW170397   6.901   9.309   2.389
22201SOL    HW270398   6.807   9.297   2.523
22202SOL     OW70399   6.618   7.997   1.878
22202SOL    HW170400   6.577   8.079   1.839
22202SOL    HW270401   6.682   8.023   1.951
22203SOL     OW70402   5.664   8.004   3.248
22203SOL    HW170403   5.756   8.003   3.207
22203SOL    HW270404   5.658   8.078   3.315
22204SOL     OW70405   6.147   7.670   3.009
22204SOL    HW170406   6.185   7.586   3.046
22204SOL    HW270407   6.059   7.689   3.053
22205SOL     OW70408   6.452   7.902   2.504
22205SOL    HW170409   6.420   7.974   2.442
22205SOL    HW270410   6.476   7.821   2.451
22206SOL     OW70411   6.603   7.487   2.615
22206SOL    HW170412   6.531   7.492   2.546
22206SOL    HW270413   6.579   7.418   2.684
22207SOL     OW70414   7.015   8.621   2.729
22207SOL    HW170415   6.960   8.537   2.722
22207SOL    HW270416   7.041   8.650   2.637
22208SOL     OW70417   7.052   8.038   2.854
22208SOL    HW170418   7.022   7.943   2.861
22208SOL    HW270419   7.125   8.054   2.920
22209SOL     OW70420   7.443   8.281   2.239
22209SOL    HW170421   7.485   8.217   2.303
22209SOL    HW270422   7.405   8.230   2.161
22210SOL     OW70423   6.074   8.833   2.036
22210SOL    HW170424   5.987   8.818   2.083
22210SOL    HW270425   6.057   8.859   1.941
22211SOL     OW70426   7.250   8.728   2.519
22211SOL    HW170427   7.349   8.736   2.533
22211SOL    HW270428   7.205   8.812   2.550
22212SOL     OW70429   6.976   8.023   1.940
22212SOL    HW170430   6.922   8.002   2.021
22212SOL    HW270431   7.067   7.982   1.949
22213SOL     OW70432   6.113   7.704   2.190
22213SOL    HW170433   6.140   7.645   2.115
22213SOL    HW270434   6.113   7.799   2.159
22214SOL     OW70435   7.340   8.671   3.450
22214SOL    HW170436   7.431   8.632   3.437
22214SOL    HW270437   7.348   8.767   3.474
22215SOL     OW70438   6.650   8.795   3.202
22215SOL    HW170439   6.570   8.772   3.257
22215SOL    HW270440   6.733   8.769   3.251
22216SOL     OW70441   7.178   9.077   3.487
22216SOL    HW170442   7.205   9.111   3.397
22216SOL    HW270443   7.257   9.039   3.533
22217SOL     OW70444   6.697   8.643   2.962
22217SOL    HW170445   6.657   8.687   3.043
22217SOL    HW270446   6.656   8.680   2.879
22218SOL     OW70447   7.224   8.547   2.941
22218SOL    HW170448   7.229   8.628   3.000
22218SOL    HW270449   7.138   8.549   2.890
22219SOL     OW70450   6.501   7.537   3.264
22219SOL    HW170451   6.526   7.517   3.169
22219SOL    HW270452   6.573   7.593   3.306
22220SOL     OW70453   6.566   8.564   3.581
22220SOL    HW170454   6.467   8.570   3.591
22220SOL    HW270455   6.589   8.484   3.525
22221SOL     OW70456   6.291   8.498   2.230
22221SOL    HW170457   6.277   8.505   2.329
22221SOL    HW270458   6.375   8.447   2.212
22222SOL     OW70459   5.996   8.261   3.113
22222SOL    HW170460   6.082   8.273   3.163
22222SOL    HW270461   5.954   8.174   3.140
22223SOL     OW70462   6.860   7.834   3.124
22223SOL    HW170463   6.881   7.908   3.188
22223SOL    HW270464   6.771   7.851   3.081
22224SOL     OW70465   5.650   9.012   3.193
22224SOL    HW170466   5.604   9.094   3.159
22224SOL    HW270467   5.748   9.031   3.202
22225SOL     OW70468   5.953   8.548   2.363
22225SOL    HW170469   5.946   8.631   2.307
22225SOL    HW270470   5.957   8.468   2.303
22226SOL     OW70471   6.152   7.985   2.727
22226SOL    HW170472   6.164   8.051   2.653
22226SOL    HW270473   6.198   8.019   2.810
22227SOL     OW70474   6.838   8.796   2.250
22227SOL    HW170475   6.888   8.873   2.290
22227SOL    HW270476   6.743   8.798   2.282
22228SOL     OW70477   6.858   8.893   3.004
22228SOL    HW170478   6.905   8.906   3.091
22228SOL    HW270479   6.792   8.819   3.013
22229SOL     OW70480   7.168   8.087   2.334
22229SOL    HW170481   7.137   8.148   2.407
22229SOL    HW270482   7.218   8.139   2.265
22230SOL     OW70483   5.940   8.958   3.191
22230SOL    HW170484   5.919   8.914   3.104
22230SOL    HW270485   6.037   8.984   3.194
22231SOL     OW70486   5.988   8.199   3.460
22231SOL    HW170487   6.056   8.254   3.413
22231SOL    HW270488   6.028   8.111   3.487
22232SOL     OW70489   7.173   8.227   3.532
22232SOL    HW170490   7.081   8.265   3.527
22232SOL    HW270491   7.233   8.274   3.467
22233SOL     OW70492   6.599   7.553   3.632
22233SOL    HW170493   6.605   7.638   3.580
22233SOL    HW270494   6.631   7.477   3.575
22234SOL     OW70495   6.090   7.498   3.602
22234SOL    HW170496   6.048   7.441   3.532
22234SOL    HW270497   6.024   7.567   3.634
22235SOL     OW70498   6.159   8.318   2.891
22235SOL    HW170499   6.203   8.407   2.882
22235SOL    HW270500   6.096   8.318   2.968
22236SOL     OW70501   6.946   8.310   2.907
22236SOL    HW170502   6.871   8.310   2.841
22236SOL    HW270503   6.983   8.218   2.916
22237SOL     OW70504   6.795   7.973   2.137
22237SOL    HW170505   6.808   7.889   2.191
22237SOL    HW270506   6.766   8.047   2.197
22238SOL     OW70507   5.893   7.661   3.093
22238SOL    HW170508   5.870   7.698   3.183
22238SOL    HW270509   5.863   7.566   3.087
22239SOL     OW70510   5.623   8.758   3.144
22239SOL    HW170511   5.676   8.709   3.212
22239SOL    HW270512   5.645   8.856   3.149
22240SOL     OW70513   6.318   8.082   2.926
22240SOL    HW170514   6.377   8.056   2.850
22240SOL    HW270515   6.290   8.178   2.915
22241SOL     OW70516   7.314   8.383   3.716
22241SOL    HW170517   7.268   8.376   3.627
22241SOL    HW270518   7.252   8.427   3.782
22242SOL     OW70519   5.893   7.511   2.480
22242SOL    HW170520   5.882   7.605   2.513
22242SOL    HW270521   5.888   7.448   2.557
22243SOL     OW70522   7.208   7.815   2.236
22243SOL    HW170523   7.210   7.739   2.300
22243SOL    HW270524   7.160   7.892   2.276
22244SOL     OW70525   6.609   8.214   2.828
22244SOL    HW170526   6.624   8.235   2.924
22244SOL    HW270527   6.579   8.119   2.819
22245SOL     OW70528   6.566   9.021   3.562
22245SOL    HW170529   6.546   9.065   3.474
22245SOL    HW270530   6.605   8.930   3.546
22246SOL     OW70531   7.445   8.966   3.467
22246SOL    HW170532   7.459   8.993   3.372
22246SOL    HW270533   7.528   8.988   3.520
22247SOL     OW70534   5.936   8.346   3.666
22247SOL    HW170535   6.012   8.390   3.714
22247SOL    HW270536   5.971   8.299   3.584
22248SOL     OW70537   7.126   7.722   1.987
22248SOL    HW170538   7.065   7.647   2.010
22248SOL    HW270539   7.148   7.774   2.070
22249SOL     OW70540   6.889   8.286   1.904
22249SOL    HW170541   6.923   8.193   1.919
22249SOL    HW270542   6.907   8.313   1.809
22250SOL     OW70543   6.654   8.781   2.711
22250SOL    HW170544   6.661   8.697   2.656
22250SOL    HW270545   6.716   8.850   2.675
22251SOL     OW70546   5.905   8.258   2.811
22251SOL    HW170547   5.998   8.294   2.816
22251SOL    HW270548   5.899   8.173   2.863
22252SOL     OW70549   5.925   7.957   2.868
22252SOL    HW170550   5.873   7.874   2.851
22252SOL    HW270551   6.002   7.962   2.804
22253SOL     OW70552   6.724   7.828   3.540
22253SOL    HW170553   6.679   7.891   3.604
22253SOL    HW270554   6.817   7.859   3.523
22254SOL     OW70555   6.746   7.655   3.339
22254SOL    HW170556   6.746   7.719   3.416
22254SOL    HW270557   6.774   7.703   3.256
22255SOL     OW70558   5.594   8.774   2.062
22255SOL    HW170559   5.501   8.795   2.031
22255SOL    HW270560   5.604   8.675   2.075
22256SOL     OW70561   5.674   9.249   2.789
22256SOL    HW170562   5.632   9.163   2.762
22256SOL    HW270563   5.768   9.252   2.755
22257SOL     OW70564   6.090   9.016   2.772
22257SOL    HW170565   6.156   9.090   2.781
22257SOL    HW270566   6.134   8.937   2.730
22258SOL     OW70567   6.588   8.244   3.100
22258SOL    HW170568   6.629   8.212   3.186
22258SOL    HW270569   6.492   8.217   3.097
22259SOL     OW70570   5.626   7.992   2.976
22259SOL    HW170571   5.711   7.959   2.935
22259SOL    HW270572   5.639   8.007   3.074
22260SOL     OW70573   5.775   7.968   3.584
22260SOL    HW170574   5.834   7.928   3.514
22260SOL    HW270575   5.717   8.039   3.543
22261SOL     OW70576   6.955   8.398   3.522
22261SOL    HW170577   6.994   8.487   3.542
22261SOL    HW270578   6.965   8.378   3.425
22262SOL     OW70579   6.401   8.020   2.187
22262SOL    HW170580   6.408   7.931   2.141
22262SOL    HW270581   6.307   8.054   2.179
22263SOL     OW70582   7.243   8.052   3.068
22263SOL    HW170583   7.205   7.983   3.130
22263SOL    HW270584   7.325   8.016   3.024
22264SOL     OW70585   5.838   9.012   3.606
22264SOL    HW170586   5.808   9.069   3.682
22264SOL    HW270587   5.831   8.915   3.632
22265SOL     OW70588   6.257   7.912   3.131
22265SOL    HW170589   6.223   7.823   3.101
22265SOL    HW270590   6.283   7.966   3.051
22266SOL     OW70591   6.516   9.126   3.327
22266SOL    HW170592   6.492   9.108   3.232
22266SOL    HW270593   6.546   9.220   3.337
22267SOL     OW70594   6.059   7.948   2.053
22267SOL    HW170595   6.120   8.028   2.057
22267SOL    HW270596   5.964   7.979   2.060
22268SOL     OW70597   5.745   8.585   3.328
22268SOL    HW170598   5.767   8.524   3.404
22268SOL    HW270599   5.755   8.536   3.242
22269SOL     OW70600   6.933   8.507   3.096
22269SOL    HW170601   6.957   8.444   3.022
22269SOL    HW270602   6.843   8.547   3.078
22270SOL     OW70603   6.888   8.303   2.171
22270SOL    HW170604   6.802   8.272   2.213
22270SOL    HW270605   6.884   8.289   2.072
22271SOL     OW70606   7.345   9.195   3.016
22271SOL    HW170607   7.406   9.225   2.943
22271SOL    HW270608   7.307   9.106   2.994
22272SOL     OW70609   6.838   9.179   2.990
22272SOL    HW170610   6.922   9.184   2.936
22272SOL    HW270611   6.815   9.083   3.008
22273SOL     OW70612   5.669   8.706   2.884
22273SOL    HW170613   5.664   8.705   2.984
22273SOL    HW270614   5.586   8.665   2.846
22274SOL     OW70615   6.274   9.110   3.578
22274SOL    HW170616   6.218   9.191   3.587
22274SOL    HW270617   6.326   9.114   3.492
22275SOL     OW70618   7.312   7.583   2.385
22275SOL    HW170619   7.385   7.566   2.318
22275SOL    HW270620   7.281   7.496   2.423
22276SOL     OW70621   6.974   9.021   2.339
22276SOL    HW170622   7.041   9.033   2.265
22276SOL    HW270623   6.934   9.110   2.362
22277SOL     OW70624   5.716   9.242   3.713
22277SOL    HW170625   5.675   9.168   3.766
22277SOL    HW270626   5.780   9.293   3.771
22278SOL     OW70627   6.866   8.375   2.534
22278SOL    HW170628   6.926   8.294   2.536
22278SOL    HW270629   6.906   8.444   2.474
22279SOL     OW70630   6.416   8.721   3.284
22279SOL    HW170631   6.411   8.754   3.379
22279SOL    HW270632   6.330   8.740   3.238
22280SOL     OW70633   6.258   9.064   2.016
22280SOL    HW170634   6.267   9.074   1.917
22280SOL    HW270635   6.218   8.975   2.037
22281SOL     OW70636   7.236   9.168   3.256
22281SOL    HW170637   7.289   9.178   3.172
22281SOL    HW270638   7.209   9.258   3.290
22282SOL     OW70639   7.427   7.623   2.825
22282SOL    HW170640   7.466   7.538   2.789
22282SOL    HW270641   7.329   7.625   2.806
22283SOL     OW70642   5.849   7.774   2.582
22283SOL    HW170643   5.770   7.825   2.548
22283SOL    HW270644   5.840   7.759   2.680
22284SOL     OW70645   6.780   9.060   1.893
22284SOL    HW170646   6.786   8.967   1.930
22284SOL    HW270647   6.721   9.060   1.813
22285SOL     OW70648   6.408   8.450   3.234
22285SOL    HW170649   6.448   8.449   3.142
22285SOL    HW270650   6.418   8.542   3.274
22286SOL     OW70651   6.502   8.358   2.153
22286SOL    HW170652   6.565   8.396   2.085
22286SOL    HW270653   6.542   8.275   2.192
22287SOL     OW70654   7.090   9.055   1.906
22287SOL    HW170655   6.998   9.092   1.913
22287SOL    HW270656   7.128   9.075   1.816
22288SOL     OW70657   5.958   8.736   3.352
22288SOL    HW170658   5.945   8.829   3.318
22288SOL    HW270659   5.874   8.684   3.339
22289SOL     OW70660   7.200   8.740   3.151
22289SOL    HW170661   7.260   8.743   3.231
22289SOL    HW270662   7.125   8.804   3.164
22290SOL     OW70663   6.625   8.546   2.558
22290SOL    HW170664   6.555   8.499   2.612
22290SOL    HW270665   6.684   8.478   2.515
22291SOL     OW70666   6.600   7.684   2.833
22291SOL    HW170667   6.592   7.648   2.740
22291SOL    HW270668   6.598   7.608   2.898
22292SOL     OW70669   6.176   8.935   2.353
22292SOL    HW170670   6.218   8.877   2.283
22292SOL    HW270671   6.132   9.014   2.309
22293SOL     OW70672   7.295   7.833   3.243
22293SOL    HW170673   7.368   7.902   3.247
22293SOL    HW270674   7.323   7.758   3.184
22294SOL     OW70675   5.841   8.796   2.152
22294SOL    HW170676   5.745   8.797   2.125
22294SOL    HW270677   5.853   8.849   2.236
22295SOL     OW70678   5.691   8.461   3.588
22295SOL    HW170679   5.614   8.428   3.642
22295SOL    HW270680   5.776   8.431   3.630
22296SOL     OW70681   6.258   7.651   3.351
22296SOL    HW170682   6.348   7.635   3.311
22296SOL    HW270683   6.266   7.656   3.450
22297SOL     OW70684   5.661   7.793   1.895
22297SOL    HW170685   5.569   7.765   1.866
22297SOL    HW270686   5.692   7.870   1.839
22298SOL     OW70687   7.026   8.304   3.260
22298SOL    HW170688   6.969   8.356   3.197
22298SOL    HW270689   7.122   8.316   3.236
22299SOL     OW70690   5.658   7.614   2.180
22299SOL    HW170691   5.641   7.697   2.126
22299SOL    HW270692   5.748   7.577   2.158
22300SOL     OW70693   6.769   8.783   1.981
22300SOL    HW170694   6.670   8.772   1.983
22300SOL    HW270695   6.803   8.798   2.074
22301SOL     OW70696   6.199   8.290   3.293
22301SOL    HW170697   6.255   8.371   3.276
22301SOL    HW270698   6.258   8.210   3.296
22302SOL     OW70699   7.079   9.215   2.821
22302SOL    HW170700   7.112   9.279   2.752
22302SOL    HW270701   7.145   9.209   2.896
22303SOL     OW70702   6.302   8.013   3.570
22303SOL    HW170703   6.321   8.078   3.644
22303SOL    HW270704   6.362   7.933   3.579
22304SOL     OW70705   7.036   8.668   3.495
22304SOL    HW170706   7.027   8.658   3.594
22304SOL    HW270707   7.132   8.661   3.469
22305SOL     OW70708   5.976   9.189   3.422
22305SOL    HW170709   5.885   9.230   3.420
22305SOL    HW270710   5.969   9.095   3.454
22306SOL     OW70711   7.260   8.331   3.116
22306SOL    HW170712   7.233   8.242   3.079
22306SOL    HW270713   7.261   8.399   3.043
22307SOL     OW70714   6.811   7.773   2.311
22307SOL    HW170715   6.876   7.699   2.300
22307SOL    HW270716   6.831   7.823   2.395
22308SOL     OW70717   6.180   8.193   2.514
22308SOL    HW170718   6.230   8.278   2.495
22308SOL    HW270719   6.092   8.195   2.466
22309SOL     OW70720   7.363   7.790   3.504
22309SOL    HW170721   7.346   7.821   3.410
22309SOL    HW270722   7.279   7.753   3.542
22310SOL     OW70723   7.316   8.382   3.379
22310SOL    HW170724   7.354   8.473   3.394
22310SOL    HW270725   7.308   8.365   3.280
22311SOL     OW70726   6.445   8.822   1.878
22311SOL    HW170727   6.399   8.837   1.966
22311SOL    HW270728   6.489   8.907   1.848
22312SOL     OW70729   6.247   9.238   2.815
22312SOL    HW170730   6.201   9.326   2.802
22312SOL    HW270731   6.346   9.250   2.808
22313SOL     OW70732   6.445   8.404   2.723
22313SOL    HW170733   6.499   8.335   2.771
22313SOL    HW270734   6.413   8.473   2.789
22314SOL     OW70735   6.669   8.432   1.949
22314SOL    HW170736   6.646   8.485   1.867
22314SOL    HW270737   6.750   8.376   1.930
22315SOL     OW70738   7.447   9.017   2.713
22315SOL    HW170739   7.376   9.005   2.643
22315SOL    HW270740   7.448   8.938   2.773
22316SOL     OW70741   5.807   8.762   3.706
22316SOL    HW170742   5.742   8.689   3.685
22316SOL    HW270743   5.811   8.776   3.804
22317SOL     OW70744   5.665   8.688   2.515
22317SOL    HW170745   5.664   8.641   2.603
22317SOL    HW270746   5.747   8.660   2.464
22318SOL     OW70747   6.258   8.839   3.486
22318SOL    HW170748   6.180   8.789   3.524
22318SOL    HW270749   6.255   8.934   3.517
22319SOL     OW70750   7.410   7.640   3.089
22319SOL    HW170751   7.406   7.550   3.133
22319SOL    HW270752   7.413   7.629   2.990
22320SOL     OW70753   6.014   7.872   2.382
22320SOL    HW170754   6.044   7.800   2.320
22320SOL    HW270755   5.975   7.832   2.465
22321SOL     OW70756   7.291   8.935   2.966
22321SOL    HW170757   7.198   8.910   2.939
22321SOL    HW270758   7.317   8.885   3.048
22322SOL     OW70759   5.903   7.995   3.142
22322SOL    HW170760   5.941   7.936   3.214
22322SOL    HW270761   5.943   7.969   3.054
22323SOL     OW70762   6.398   9.034   2.549
22323SOL    HW170763   6.430   9.044   2.455
22323SOL    HW270764   6.319   8.972   2.551
22324SOL     OW70765   7.010   7.662   2.974
22324SOL    HW170766   7.062   7.597   3.029
22324SOL    HW270767   6.961   7.725   3.035
22325SOL     OW70768   6.587   7.482   3.016
22325SOL    HW170769   6.524   7.410   2.985
22325SOL    HW270770   6.680   7.446   3.016
22326SOL     OW70771   6.356   8.778   2.163
22326SOL    HW170772   6.310   8.691   2.180
22326SOL    HW270773   6.447   8.775   2.204
22327SOL     OW70774   6.204   9.015   3.146
22327SOL    HW170775   6.199   9.097   3.203
22327SOL    HW270776   6.293   9.012   3.101
22328SOL     OW70777   6.938   7.500   2.030
22328SOL    HW170778   6.973   7.459   1.946
22328SOL    HW270779   6.848   7.462   2.050
22329SOL     OW70780   6.886   7.901   2.553
22329SOL    HW170781   6.827   7.981   2.557
22329SOL    HW270782   6.901   7.866   2.646
22330SOL     OW70783   7.179   7.669   2.744
22330SOL    HW170784   7.095   7.668   2.798
22330SOL    HW270785   7.181   7.752   2.688
22331SOL     OW70786   5.625   8.525   2.162
22331SOL    HW170787   5.724   8.514   2.153
22331SOL    HW270788   5.585   8.439   2.194
22332SOL     OW70789   6.461   9.094   2.199
22332SOL    HW170790   6.384   9.059   2.145
22332SOL    HW270791   6.429   9.165   2.261
22333SOL     OW70792   5.816   8.076   3.837
22333SOL    HW170793   5.723   8.074   3.874
22333SOL    HW270794   5.817   8.037   3.745
22334SOL     OW70795   5.811   7.723   4.720
22334SOL    HW170796   5.846   7.706   4.812
22334SOL    HW270797   5.723   7.678   4.708
22335SOL     OW70798   5.605   7.816   4.371
22335SOL    HW170799   5.523   7.859   4.410
22335SOL    HW270800   5.577   7.743   4.308
22336SOL     OW70801   7.141   8.959   4.427
22336SOL    HW170802   7.084   8.943   4.508
22336SOL    HW270803   7.082   8.969   4.347
22337SOL     OW70804   7.341   8.055   3.955
22337SOL    HW170805   7.329   8.042   3.856
22337SOL    HW270806   7.311   7.974   4.004
22338SOL     OW70807   6.354   8.592   4.747
22338SOL    HW170808   6.276   8.609   4.807
22338SOL    HW270809   6.388   8.679   4.711
22339SOL     OW70810   6.436   8.246   5.547
22339SOL    HW170811   6.432   8.322   5.612
22339SOL    HW270812   6.458   8.282   5.456
22340SOL     OW70813   6.271   8.460   4.389
22340SOL    HW170814   6.340   8.444   4.459
22340SOL    HW270815   6.198   8.517   4.427
22341SOL     OW70816   6.272   8.609   5.527
22341SOL    HW170817   6.332   8.688   5.541
22341SOL    HW270818   6.186   8.640   5.486
22342SOL     OW70819   7.046   8.953   5.063
22342SOL    HW170820   7.070   9.047   5.089
22342SOL    HW270821   7.030   8.899   5.145
22343SOL     OW70822   6.024   7.840   5.223
22343SOL    HW170823   6.106   7.784   5.232
22343SOL    HW270824   5.943   7.782   5.227
22344SOL     OW70825   7.189   7.895   4.461
22344SOL    HW170826   7.115   7.941   4.411
22344SOL    HW270827   7.240   7.963   4.514
22345SOL     OW70828   5.817   9.161   4.207
22345SOL    HW170829   5.851   9.238   4.261
22345SOL    HW270830   5.861   9.161   4.117
22346SOL     OW70831   6.713   8.789   5.414
22346SOL    HW170832   6.760   8.789   5.502
22346SOL    HW270833   6.665   8.702   5.403
22347SOL     OW70834   5.816   8.882   4.262
22347SOL    HW170835   5.790   8.978   4.262
22347SOL    HW270836   5.745   8.828   4.307
22348SOL     OW70837   5.826   8.539   4.610
22348SOL    HW170838   5.840   8.455   4.662
22348SOL    HW270839   5.771   8.603   4.665
22349SOL     OW70840   6.192   8.412   3.847
22349SOL    HW170841   6.199   8.496   3.793
22349SOL    HW270842   6.238   8.425   3.935
22350SOL     OW70843   7.180   7.562   5.204
22350SOL    HW170844   7.162   7.629   5.132
22350SOL    HW270845   7.177   7.608   5.293
22351SOL     OW70846   5.708   8.091   4.287
22351SOL    HW170847   5.663   8.003   4.304
22351SOL    HW270848   5.707   8.145   4.371
22352SOL     OW70849   7.428   9.215   4.083
22352SOL    HW170850   7.482   9.186   4.163
22352SOL    HW270851   7.458   9.305   4.054
22353SOL     OW70852   5.613   9.044   3.841
22353SOL    HW170853   5.594   8.948   3.862
22353SOL    HW270854   5.580   9.102   3.916
22354SOL     OW70855   7.275   8.370   4.336
22354SOL    HW170856   7.370   8.341   4.344
22354SOL    HW270857   7.267   8.435   4.261
22355SOL     OW70858   7.227   8.556   4.156
22355SOL    HW170859   7.313   8.558   4.104
22355SOL    HW270860   7.241   8.603   4.244
22356SOL     OW70861   5.699   8.185   5.321
22356SOL    HW170862   5.787   8.172   5.366
22356SOL    HW270863   5.686   8.282   5.299
22357SOL     OW70864   6.199   8.813   4.450
22357SOL    HW170865   6.150   8.726   4.459
22357SOL    HW270866   6.176   8.856   4.363
22358SOL     OW70867   6.879   8.676   5.147
22358SOL    HW170868   6.916   8.603   5.089
22358SOL    HW270869   6.931   8.681   5.232
22359SOL     OW70870   6.395   7.452   4.226
22359SOL    HW170871   6.435   7.543   4.217
22359SOL    HW270872   6.295   7.460   4.232
22360SOL     OW70873   5.783   8.424   4.988
22360SOL    HW170874   5.872   8.379   4.974
22360SOL    HW270875   5.710   8.359   4.969
22361SOL     OW70876   7.111   8.447   3.914
22361SOL    HW170877   7.048   8.371   3.927
22361SOL    HW270878   7.159   8.465   4.000
22362SOL     OW70879   6.773   9.240   5.340
22362SOL    HW170880   6.797   9.300   5.264
22362SOL    HW270881   6.780   9.145   5.310
22363SOL     OW70882   5.903   7.699   5.525
22363SOL    HW170883   5.974   7.770   5.531
22363SOL    HW270884   5.815   7.738   5.553
22364SOL     OW70885   7.052   8.865   4.677
22364SOL    HW170886   6.993   8.871   4.757
22364SOL    HW270887   7.037   8.777   4.631
22365SOL     OW70888   7.253   9.162   4.296
22365SOL    HW170889   7.212   9.139   4.208
22365SOL    HW270890   7.235   9.088   4.361
22366SOL     OW70891   6.184   8.177   3.994
22366SOL    HW170892   6.208   8.246   3.926
22366SOL    HW270893   6.106   8.210   4.048
22367SOL     OW70894   7.162   9.110   4.031
22367SOL    HW170895   7.251   9.156   4.034
22367SOL    HW270896   7.141   9.086   3.936
22368SOL     OW70897   6.393   8.053   5.189
22368SOL    HW170898   6.346   8.050   5.278
22368SOL    HW270899   6.342   7.998   5.123
22369SOL     OW70900   6.980   7.917   5.398
22369SOL    HW170901   6.960   7.960   5.486
22369SOL    HW270902   7.058   7.855   5.407
22370SOL     OW70903   6.559   8.338   5.296
22370SOL    HW170904   6.605   8.254   5.267
22370SOL    HW270905   6.503   8.372   5.221
22371SOL     OW70906   6.627   8.149   4.153
22371SOL    HW170907   6.653   8.145   4.249
22371SOL    HW270908   6.542   8.098   4.139
22372SOL     OW70909   5.662   8.259   4.513
22372SOL    HW170910   5.761   8.247   4.522
22372SOL    HW270911   5.638   8.354   4.534
22373SOL     OW70912   5.716   9.269   5.295
22373SOL    HW170913   5.706   9.254   5.394
22373SOL    HW270914   5.630   9.305   5.259
22374SOL     OW70915   6.451   7.796   3.919
22374SOL    HW170916   6.510   7.859   3.870
22374SOL    HW270917   6.470   7.702   3.890
22375SOL     OW70918   7.305   8.033   5.555
22375SOL    HW170919   7.279   8.122   5.519
22375SOL    HW270920   7.303   7.965   5.482
22376SOL     OW70921   6.948   8.592   4.269
22376SOL    HW170922   7.031   8.563   4.221
22376SOL    HW270923   6.899   8.659   4.213
22377SOL     OW70924   6.136   7.644   4.609
22377SOL    HW170925   6.131   7.639   4.709
22377SOL    HW270926   6.138   7.740   4.580
22378SOL     OW70927   6.594   8.904   4.201
22378SOL    HW170928   6.548   8.976   4.149
22378SOL    HW270929   6.590   8.924   4.299
22379SOL     OW70930   5.937   9.249   4.577
22379SOL    HW170931   5.987   9.163   4.583
22379SOL    HW270932   6.002   9.326   4.574
22380SOL     OW70933   7.381   8.514   4.597
22380SOL    HW170934   7.319   8.499   4.521
22380SOL    HW270935   7.329   8.525   4.682
22381SOL     OW70936   6.813   8.998   5.230
22381SOL    HW170937   6.819   8.921   5.294
22381SOL    HW270938   6.761   8.972   5.150
22382SOL     OW70939   5.907   8.391   3.966
22382SOL    HW170940   5.989   8.430   3.924
22382SOL    HW270941   5.880   8.309   3.917
22383SOL     OW70942   7.044   8.183   4.452
22383SOL    HW170943   7.039   8.118   4.527
22383SOL    HW270944   7.124   8.242   4.465
22384SOL     OW70945   6.047   8.714   5.451
22384SOL    HW170946   5.997   8.715   5.365
22384SOL    HW270947   5.984   8.696   5.527
22385SOL     OW70948   6.697   9.224   3.961
22385SOL    HW170949   6.637   9.162   4.011
22385SOL    HW270950   6.728   9.180   3.876
22386SOL     OW70951   5.788   7.733   5.222
22386SOL    HW170952   5.708   7.793   5.209
22386SOL    HW270953   5.778   7.684   5.308
22387SOL     OW70954   7.218   8.825   3.805
22387SOL    HW170955   7.186   8.919   3.795
22387SOL    HW270956   7.142   8.762   3.793
22388SOL     OW70957   6.050   9.191   4.047
22388SOL    HW170958   6.083   9.230   4.133
22388SOL    HW270959   6.126   9.184   3.982
22389SOL     OW70960   6.986   7.555   4.150
22389SOL    HW170961   6.962   7.518   4.060
22389SOL    HW270962   7.085   7.571   4.154
22390SOL     OW70963   6.526   9.146   4.628
22390SOL    HW170964   6.606   9.089   4.649
22390SOL    HW270965   6.477   9.106   4.551
22391SOL     OW70966   5.968   8.148   4.204
22391SOL    HW170967   6.013   8.058   4.201
22391SOL    HW270968   5.874   8.137   4.237
22392SOL     OW70969   7.133   7.670   5.453
22392SOL    HW170970   7.128   7.707   5.545
22392SOL    HW270971   7.061   7.601   5.441
22393SOL     OW70972   6.200   7.570   3.841
22393SOL    HW170973   6.298   7.548   3.848
22393SOL    HW270974   6.169   7.553   3.748
22394SOL     OW70975   6.367   7.712   5.473
22394SOL    HW170976   6.434   7.651   5.516
22394SOL    HW270977   6.294   7.731   5.538
22395SOL     OW70978   6.474   8.962   4.919
22395SOL    HW170979   6.451   8.937   4.825
22395SOL    HW270980   6.535   8.893   4.958
22396SOL     OW70981   6.937   8.038   5.157
22396SOL    HW170982   6.965   7.995   5.242
22396SOL    HW270983   6.962   8.134   5.158
22397SOL     OW70984   6.389   8.850   4.648
22397SOL    HW170985   6.479   8.864   4.606
22397SOL    HW270986   6.318   8.852   4.577
22398SOL     OW70987   6.125   7.512   4.236
22398SOL    HW170988   6.044   7.513   4.294
22398SOL    HW270989   6.128   7.595   4.181
22399SOL     OW70990   7.020   8.636   3.765
22399SOL    HW170991   7.052   8.560   3.822
22399SOL    HW270992   6.928   8.663   3.795
22400SOL     OW70993   5.883   7.483   3.895
22400SOL    HW170994   5.932   7.567   3.874
22400SOL    HW270995   5.945   7.418   3.940
22401SOL     OW70996   6.521   7.684   4.204
22401SOL    HW170997   6.473   7.725   4.126
22401SOL    HW270998   6.620   7.682   4.185
22402SOL     OW70999   6.662   8.131   5.188
22402SOL    HW171000   6.582   8.070   5.191
22402SOL    HW271001   6.743   8.078   5.164
22403SOL     OW71002   6.813   9.018   4.517
22403SOL    HW171003   6.834   9.092   4.452
22403SOL    HW271004   6.881   9.018   4.590
22404SOL     OW71005   6.045   8.600   4.465
22404SOL    HW171006   5.974   8.573   4.530
22404SOL    HW271007   6.019   8.572   4.372
22405SOL     OW71008   6.857   9.245   4.315
22405SOL    HW171009   6.901   9.309   4.251
22405SOL    HW271010   6.807   9.297   4.385
22406SOL     OW71011   6.618   7.997   3.740
22406SOL    HW171012   6.577   8.079   3.701
22406SOL    HW271013   6.682   8.023   3.813
22407SOL     OW71014   5.664   8.004   5.110
22407SOL    HW171015   5.756   8.003   5.069
22407SOL    HW271016   5.658   8.078   5.177
22408SOL     OW71017   6.147   7.670   4.871
22408SOL    HW171018   6.185   7.586   4.908
22408SOL    HW271019   6.059   7.689   4.915
22409SOL     OW71020   6.452   7.902   4.366
22409SOL    HW171021   6.420   7.974   4.304
22409SOL    HW271022   6.476   7.821   4.313
22410SOL     OW71023   6.603   7.487   4.477
22410SOL    HW171024   6.531   7.492   4.408
22410SOL    HW271025   6.579   7.418   4.546
22411SOL     OW71026   7.015   8.621   4.591
22411SOL    HW171027   6.960   8.537   4.584
22411SOL    HW271028   7.041   8.650   4.499
22412SOL     OW71029   7.052   8.038   4.716
22412SOL    HW171030   7.022   7.943   4.723
22412SOL    HW271031   7.125   8.054   4.782
22413SOL     OW71032   7.443   8.281   4.101
22413SOL    HW171033   7.485   8.217   4.165
22413SOL    HW271034   7.405   8.230   4.023
22414SOL     OW71035   6.074   8.833   3.898
22414SOL    HW171036   5.987   8.818   3.945
22414SOL    HW271037   6.057   8.859   3.803
22415SOL     OW71038   7.250   8.728   4.381
22415SOL    HW171039   7.349   8.736   4.395
22415SOL    HW271040   7.205   8.812   4.412
22416SOL     OW71041   6.976   8.023   3.802
22416SOL    HW171042   6.922   8.002   3.883
22416SOL    HW271043   7.067   7.982   3.811
22417SOL     OW71044   6.113   7.704   4.052
22417SOL    HW171045   6.140   7.645   3.977
22417SOL    HW271046   6.113   7.799   4.021
22418SOL     OW71047   7.340   8.671   5.312
22418SOL    HW171048   7.431   8.632   5.299
22418SOL    HW271049   7.348   8.767   5.336
22419SOL     OW71050   6.650   8.795   5.064
22419SOL    HW171051   6.570   8.772   5.119
22419SOL    HW271052   6.733   8.769   5.113
22420SOL     OW71053   7.178   9.077   5.349
22420SOL    HW171054   7.205   9.111   5.259
22420SOL    HW271055   7.257   9.039   5.395
22421SOL     OW71056   6.697   8.643   4.824
22421SOL    HW171057   6.657   8.687   4.905
22421SOL    HW271058   6.656   8.680   4.741
22422SOL     OW71059   7.224   8.547   4.803
22422SOL    HW171060   7.229   8.628   4.862
22422SOL    HW271061   7.138   8.549   4.752
22423SOL     OW71062   6.501   7.537   5.126
22423SOL    HW171063   6.526   7.517   5.031
22423SOL    HW271064   6.573   7.593   5.168
22424SOL     OW71065   6.566   8.564   5.443
22424SOL    HW171066   6.467   8.570   5.453
22424SOL    HW271067   6.589   8.484   5.387
22425SOL     OW71068   6.291   8.498   4.092
22425SOL    HW171069   6.277   8.505   4.191
22425SOL    HW271070   6.375   8.447   4.074
22426SOL     OW71071   5.996   8.261   4.975
22426SOL    HW171072   6.082   8.273   5.025
22426SOL    HW271073   5.954   8.174   5.002
22427SOL     OW71074   6.860   7.834   4.986
22427SOL    HW171075   6.881   7.908   5.050
22427SOL    HW271076   6.771   7.851   4.943
22428SOL     OW71077   5.953   8.548   4.225
22428SOL    HW171078   5.946   8.631   4.169
22428SOL    HW271079   5.957   8.468   4.165
22429SOL     OW71080   6.152   7.985   4.589
22429SOL    HW171081   6.164   8.051   4.515
22429SOL    HW271082   6.198   8.019   4.672
22430SOL     OW71083   6.838   8.796   4.112
22430SOL    HW171084   6.888   8.873   4.152
22430SOL    HW271085   6.743   8.798   4.144
22431SOL     OW71086   6.858   8.893   4.866
22431SOL    HW171087   6.905   8.906   4.953
22431SOL    HW271088   6.792   8.819   4.875
22432SOL     OW71089   7.168   8.087   4.196
22432SOL    HW171090   7.137   8.148   4.269
22432SOL    HW271091   7.218   8.139   4.127
22433SOL     OW71092   5.988   8.199   5.322
22433SOL    HW171093   6.056   8.254   5.275
22433SOL    HW271094   6.028   8.111   5.349
22434SOL     OW71095   7.173   8.227   5.394
22434SOL    HW171096   7.081   8.265   5.389
22434SOL    HW271097   7.233   8.274   5.329
22435SOL     OW71098   6.599   7.553   5.494
22435SOL    HW171099   6.605   7.638   5.442
22435SOL    HW271100   6.631   7.477   5.437
22436SOL     OW71101   6.090   7.498   5.464
22436SOL    HW171102   6.048   7.441   5.394
22436SOL    HW271103   6.024   7.567   5.496
22437SOL     OW71104   6.159   8.318   4.753
22437SOL    HW171105   6.203   8.407   4.744
22437SOL    HW271106   6.096   8.318   4.830
22438SOL     OW71107   6.795   7.973   3.999
22438SOL    HW171108   6.808   7.889   4.053
22438SOL    HW271109   6.766   8.047   4.059
22439SOL     OW71110   5.893   7.661   4.955
22439SOL    HW171111   5.870   7.698   5.045
22439SOL    HW271112   5.863   7.566   4.949
22440SOL     OW71113   5.623   8.758   5.006
22440SOL    HW171114   5.676   8.709   5.074
22440SOL    HW271115   5.645   8.856   5.011
22441SOL     OW71116   6.318   8.082   4.788
22441SOL    HW171117   6.377   8.056   4.712
22441SOL    HW271118   6.290   8.178   4.777
22442SOL     OW71119   7.314   8.383   5.578
22442SOL    HW171120   7.268   8.376   5.489
22442SOL    HW271121   7.252   8.427   5.644
22443SOL     OW71122   5.893   7.511   4.342
22443SOL    HW171123   5.882   7.605   4.375
22443SOL    HW271124   5.888   7.448   4.419
22444SOL     OW71125   7.208   7.815   4.098
22444SOL    HW171126   7.210   7.739   4.162
22444SOL    HW271127   7.160   7.892   4.138
22445SOL     OW71128   6.566   9.021   5.424
22445SOL    HW171129   6.546   9.065   5.336
22445SOL    HW271130   6.605   8.930   5.408
22446SOL     OW71131   7.445   8.966   5.329
22446SOL    HW171132   7.459   8.993   5.234
22446SOL    HW271133   7.528   8.988   5.382
22447SOL     OW71134   5.936   8.346   5.528
22447SOL    HW171135   6.012   8.390   5.576
22447SOL    HW271136   5.971   8.299   5.446
22448SOL     OW71137   7.126   7.722   3.849
22448SOL    HW171138   7.065   7.647   3.872
22448SOL    HW271139   7.148   7.774   3.932
22449SOL     OW71140   6.889   8.286   3.766
22449SOL    HW171141   6.923   8.193   3.781
22449SOL    HW271142   6.907   8.313   3.671
22450SOL     OW71143   6.654   8.781   4.573
22450SOL    HW171144   6.661   8.697   4.518
22450SOL    HW271145   6.716   8.850   4.537
22451SOL     OW71146   5.905   8.258   4.673
22451SOL    HW171147   5.998   8.294   4.678
22451SOL    HW271148   5.899   8.173   4.725
22452SOL     OW71149   5.925   7.957   4.730
22452SOL    HW171150   5.873   7.874   4.713
22452SOL    HW271151   6.002   7.962   4.666
22453SOL     OW71152   6.724   7.828   5.402
22453SOL    HW171153   6.679   7.891   5.466
22453SOL    HW271154   6.817   7.859   5.385
22454SOL     OW71155   6.746   7.655   5.201
22454SOL    HW171156   6.746   7.719   5.278
22454SOL    HW271157   6.774   7.703   5.118
22455SOL     OW71158   5.594   8.774   3.924
22455SOL    HW171159   5.501   8.795   3.893
22455SOL    HW271160   5.604   8.675   3.937
22456SOL     OW71161   5.674   9.249   4.651
22456SOL    HW171162   5.632   9.163   4.624
22456SOL    HW271163   5.768   9.252   4.617
22457SOL     OW71164   6.090   9.016   4.634
22457SOL    HW171165   6.156   9.090   4.643
22457SOL    HW271166   6.134   8.937   4.592
22458SOL     OW71167   5.626   7.992   4.838
22458SOL    HW171168   5.711   7.959   4.797
22458SOL    HW271169   5.639   8.007   4.936
22459SOL     OW71170   5.775   7.968   5.446
22459SOL    HW171171   5.834   7.928   5.376
22459SOL    HW271172   5.717   8.039   5.405
22460SOL     OW71173   6.955   8.398   5.384
22460SOL    HW171174   6.994   8.487   5.404
22460SOL    HW271175   6.965   8.378   5.287
22461SOL     OW71176   6.401   8.020   4.049
22461SOL    HW171177   6.408   7.931   4.003
22461SOL    HW271178   6.307   8.054   4.041
22462SOL     OW71179   7.243   8.052   4.930
22462SOL    HW171180   7.205   7.983   4.992
22462SOL    HW271181   7.325   8.016   4.886
22463SOL     OW71182   5.838   9.012   5.468
22463SOL    HW171183   5.808   9.069   5.544
22463SOL    HW271184   5.831   8.915   5.494
22464SOL     OW71185   6.257   7.912   4.993
22464SOL    HW171186   6.223   7.823   4.963
22464SOL    HW271187   6.283   7.966   4.913
22465SOL     OW71188   6.516   9.126   5.189
22465SOL    HW171189   6.492   9.108   5.094
22465SOL    HW271190   6.546   9.220   5.199
22466SOL     OW71191   6.059   7.948   3.915
22466SOL    HW171192   6.120   8.028   3.919
22466SOL    HW271193   5.964   7.979   3.922
22467SOL     OW71194   5.745   8.585   5.190
22467SOL    HW171195   5.767   8.524   5.266
22467SOL    HW271196   5.755   8.536   5.104
22468SOL     OW71197   6.933   8.507   4.958
22468SOL    HW171198   6.957   8.444   4.884
22468SOL    HW271199   6.843   8.547   4.940
22469SOL     OW71200   6.888   8.303   4.033
22469SOL    HW171201   6.802   8.272   4.075
22469SOL    HW271202   6.884   8.289   3.934
22470SOL     OW71203   7.345   9.195   4.878
22470SOL    HW171204   7.406   9.225   4.805
22470SOL    HW271205   7.307   9.106   4.856
22471SOL     OW71206   6.838   9.179   4.852
22471SOL    HW171207   6.922   9.184   4.798
22471SOL    HW271208   6.815   9.083   4.870
22472SOL     OW71209   5.669   8.706   4.746
22472SOL    HW171210   5.664   8.705   4.846
22472SOL    HW271211   5.586   8.665   4.708
22473SOL     OW71212   6.274   9.110   5.440
22473SOL    HW171213   6.218   9.191   5.449
22473SOL    HW271214   6.326   9.114   5.354
22474SOL     OW71215   7.312   7.583   4.247
22474SOL    HW171216   7.385   7.566   4.180
22474SOL    HW271217   7.281   7.496   4.285
22475SOL     OW71218   6.974   9.021   4.201
22475SOL    HW171219   7.041   9.033   4.127
22475SOL    HW271220   6.934   9.110   4.224
22476SOL     OW71221   5.716   9.242   5.575
22476SOL    HW171222   5.675   9.168   5.628
22476SOL    HW271223   5.780   9.293   5.633
22477SOL     OW71224   6.866   8.375   4.396
22477SOL    HW171225   6.926   8.294   4.398
22477SOL    HW271226   6.906   8.444   4.336
22478SOL     OW71227   6.416   8.721   5.146
22478SOL    HW171228   6.411   8.754   5.241
22478SOL    HW271229   6.330   8.740   5.100
22479SOL     OW71230   6.258   9.064   3.878
22479SOL    HW171231   6.267   9.074   3.779
22479SOL    HW271232   6.218   8.975   3.899
22480SOL     OW71233   7.236   9.168   5.118
22480SOL    HW171234   7.289   9.178   5.034
22480SOL    HW271235   7.209   9.258   5.152
22481SOL     OW71236   7.427   7.623   4.687
22481SOL    HW171237   7.466   7.538   4.651
22481SOL    HW271238   7.329   7.625   4.668
22482SOL     OW71239   5.849   7.774   4.444
22482SOL    HW171240   5.770   7.825   4.410
22482SOL    HW271241   5.840   7.759   4.542
22483SOL     OW71242   6.780   9.060   3.755
22483SOL    HW171243   6.786   8.967   3.792
22483SOL    HW271244   6.721   9.060   3.675
22484SOL     OW71245   6.408   8.450   5.096
22484SOL    HW171246   6.448   8.449   5.004
22484SOL    HW271247   6.418   8.542   5.136
22485SOL     OW71248   6.502   8.358   4.015
22485SOL    HW171249   6.565   8.396   3.947
22485SOL    HW271250   6.542   8.275   4.054
22486SOL     OW71251   7.090   9.055   3.768
22486SOL    HW171252   6.998   9.092   3.775
22486SOL    HW271253   7.128   9.075   3.678
22487SOL     OW71254   7.200   8.740   5.013
22487SOL    HW171255   7.260   8.743   5.093
22487SOL    HW271256   7.125   8.804   5.026
22488SOL     OW71257   6.625   8.546   4.420
22488SOL    HW171258   6.555   8.499   4.474
22488SOL    HW271259   6.684   8.478   4.377
22489SOL     OW71260   6.600   7.684   4.695
22489SOL    HW171261   6.592   7.648   4.602
22489SOL    HW271262   6.598   7.608   4.760
22490SOL     OW71263   6.176   8.935   4.215
22490SOL    HW171264   6.218   8.877   4.145
22490SOL    HW271265   6.132   9.014   4.171
22491SOL     OW71266   7.295   7.833   5.105
22491SOL    HW171267   7.368   7.902   5.109
22491SOL    HW271268   7.323   7.758   5.046
22492SOL     OW71269   5.841   8.796   4.014
22492SOL    HW171270   5.745   8.797   3.987
22492SOL    HW271271   5.853   8.849   4.098
22493SOL     OW71272   5.691   8.461   5.450
22493SOL    HW171273   5.614   8.428   5.504
22493SOL    HW271274   5.776   8.431   5.492
22494SOL     OW71275   6.258   7.651   5.213
22494SOL    HW171276   6.348   7.635   5.173
22494SOL    HW271277   6.266   7.656   5.312
22495SOL     OW71278   5.661   7.793   3.757
22495SOL    HW171279   5.569   7.765   3.728
22495SOL    HW271280   5.692   7.870   3.701
22496SOL     OW71281   7.026   8.304   5.122
22496SOL    HW171282   6.969   8.356   5.059
22496SOL    HW271283   7.122   8.316   5.098
22497SOL     OW71284   5.658   7.614   4.042
22497SOL    HW171285   5.641   7.697   3.988
22497SOL    HW271286   5.748   7.577   4.020
22498SOL     OW71287   6.769   8.783   3.843
22498SOL    HW171288   6.670   8.772   3.845
22498SOL    HW271289   6.803   8.798   3.936
22499SOL     OW71290   6.199   8.290   5.155
22499SOL    HW171291   6.255   8.371   5.138
22499SOL    HW271292   6.258   8.210   5.158
22500SOL     OW71293   7.079   9.215   4.683
22500SOL    HW171294   7.112   9.279   4.614
22500SOL    HW271295   7.145   9.209   4.758
22501SOL     OW71296   6.302   8.013   5.432
22501SOL    HW171297   6.321   8.078   5.506
22501SOL    HW271298   6.362   7.933   5.441
22502SOL     OW71299   7.036   8.668   5.357
22502SOL    HW171300   7.027   8.658   5.456
22502SOL    HW271301   7.132   8.661   5.331
22503SOL     OW71302   7.260   8.331   4.978
22503SOL    HW171303   7.233   8.242   4.941
22503SOL    HW271304   7.261   8.399   4.905
22504SOL     OW71305   6.811   7.773   4.173
22504SOL    HW171306   6.876   7.699   4.162
22504SOL    HW271307   6.831   7.823   4.257
22505SOL     OW71308   6.180   8.193   4.376
22505SOL    HW171309   6.230   8.278   4.357
22505SOL    HW271310   6.092   8.195   4.328
22506SOL     OW71311   7.363   7.790   5.366
22506SOL    HW171312   7.346   7.821   5.272
22506SOL    HW271313   7.279   7.753   5.404
22507SOL     OW71314   7.316   8.382   5.241
22507SOL    HW171315   7.354   8.473   5.256
22507SOL    HW271316   7.308   8.365   5.142
22508SOL     OW71317   6.445   8.822   3.740
22508SOL    HW171318   6.399   8.837   3.828
22508SOL    HW271319   6.489   8.907   3.710
22509SOL     OW71320   6.247   9.238   4.677
22509SOL    HW171321   6.201   9.326   4.664
22509SOL    HW271322   6.346   9.250   4.670
22510SOL     OW71323   6.669   8.432   3.811
22510SOL    HW171324   6.646   8.485   3.729
22510SOL    HW271325   6.750   8.376   3.792
22511SOL     OW71326   7.447   9.017   4.575
22511SOL    HW171327   7.376   9.005   4.505
22511SOL    HW271328   7.448   8.938   4.635
22512SOL     OW71329   5.807   8.762   5.568
22512SOL    HW171330   5.742   8.689   5.547
22512SOL    HW271331   5.811   8.776   5.666
22513SOL     OW71332   5.665   8.688   4.377
22513SOL    HW171333   5.664   8.641   4.465
22513SOL    HW271334   5.747   8.660   4.326
22514SOL     OW71335   6.258   8.839   5.348
22514SOL    HW171336   6.180   8.789   5.386
22514SOL    HW271337   6.255   8.934   5.379
22515SOL     OW71338   7.410   7.640   4.951
22515SOL    HW171339   7.406   7.550   4.995
22515SOL    HW271340   7.413   7.629   4.852
22516SOL     OW71341   6.014   7.872   4.244
22516SOL    HW171342   6.044   7.800   4.182
22516SOL    HW271343   5.975   7.832   4.327
22517SOL     OW71344   7.291   8.935   4.828
22517SOL    HW171345   7.198   8.910   4.801
22517SOL    HW271346   7.317   8.885   4.910
22518SOL     OW71347   5.903   7.995   5.004
22518SOL    HW171348   5.941   7.936   5.076
22518SOL    HW271349   5.943   7.969   4.916
22519SOL     OW71350   6.398   9.034   4.411
22519SOL    HW171351   6.430   9.044   4.317
22519SOL    HW271352   6.319   8.972   4.413
22520SOL     OW71353   7.010   7.662   4.836
22520SOL    HW171354   7.062   7.597   4.891
22520SOL    HW271355   6.961   7.725   4.897
22521SOL     OW71356   6.587   7.482   4.878
22521SOL    HW171357   6.524   7.410   4.847
22521SOL    HW271358   6.680   7.446   4.878
22522SOL     OW71359   6.356   8.778   4.025
22522SOL    HW171360   6.310   8.691   4.042
22522SOL    HW271361   6.447   8.775   4.066
22523SOL     OW71362   6.938   7.500   3.892
22523SOL    HW171363   6.973   7.459   3.808
22523SOL    HW271364   6.848   7.462   3.912
22524SOL     OW71365   7.179   7.669   4.606
22524SOL    HW171366   7.095   7.668   4.660
22524SOL    HW271367   7.181   7.752   4.550
22525SOL     OW71368   5.625   8.525   4.024
22525SOL    HW171369   5.724   8.514   4.015
22525SOL    HW271370   5.585   8.439   4.056
22526SOL     OW71371   6.461   9.094   4.061
22526SOL    HW171372   6.384   9.059   4.007
22526SOL    HW271373   6.429   9.165   4.123
22527SOL     OW71374   5.816   8.076   5.699
22527SOL    HW171375   5.723   8.074   5.736
22527SOL    HW271376   5.817   8.037   5.607
22528SOL     OW71377   5.811   7.723   6.582
22528SOL    HW171378   5.846   7.706   6.674
22528SOL    HW271379   5.723   7.678   6.570
22529SOL     OW71380   5.605   7.816   6.233
22529SOL    HW171381   5.523   7.859   6.272
22529SOL    HW271382   5.577   7.743   6.170
22530SOL     OW71383   6.155   8.723   6.751
22530SOL    HW171384   6.062   8.716   6.714
22530SOL    HW271385   6.166   8.812   6.795
22531SOL     OW71386   7.141   8.959   6.289
22531SOL    HW171387   7.084   8.943   6.370
22531SOL    HW271388   7.082   8.969   6.209
22532SOL     OW71389   6.721   8.151   6.303
22532SOL    HW171390   6.778   8.229   6.278
22532SOL    HW271391   6.661   8.177   6.379
22533SOL     OW71392   7.341   8.055   5.817
22533SOL    HW171393   7.329   8.042   5.718
22533SOL    HW271394   7.311   7.974   5.866
22534SOL     OW71395   6.354   8.592   6.609
22534SOL    HW171396   6.276   8.609   6.669
22534SOL    HW271397   6.388   8.679   6.573
22535SOL     OW71398   6.436   8.246   7.409
22535SOL    HW171399   6.432   8.322   7.474
22535SOL    HW271400   6.458   8.282   7.318
22536SOL     OW71401   6.271   8.460   6.251
22536SOL    HW171402   6.340   8.444   6.321
22536SOL    HW271403   6.198   8.517   6.289
22537SOL     OW71404   6.272   8.609   7.389
22537SOL    HW171405   6.332   8.688   7.403
22537SOL    HW271406   6.186   8.640   7.348
22538SOL     OW71407   5.921   8.883   6.647
22538SOL    HW171408   5.843   8.852   6.594
22538SOL    HW271409   5.979   8.941   6.590
22539SOL     OW71410   7.046   8.953   6.925
22539SOL    HW171411   7.070   9.047   6.951
22539SOL    HW271412   7.030   8.899   7.007
22540SOL     OW71413   6.024   7.840   7.085
22540SOL    HW171414   6.106   7.784   7.094
22540SOL    HW271415   5.943   7.782   7.089
22541SOL     OW71416   7.189   7.895   6.323
22541SOL    HW171417   7.115   7.941   6.273
22541SOL    HW271418   7.240   7.963   6.376
22542SOL     OW71419   5.817   9.161   6.069
22542SOL    HW171420   5.851   9.238   6.123
22542SOL    HW271421   5.861   9.161   5.979
22543SOL     OW71422   6.713   8.789   7.276
22543SOL    HW171423   6.760   8.789   7.364
22543SOL    HW271424   6.665   8.702   7.265
22544SOL     OW71425   5.816   8.882   6.124
22544SOL    HW171426   5.790   8.978   6.124
22544SOL    HW271427   5.745   8.828   6.169
22545SOL     OW71428   5.826   8.539   6.472
22545SOL    HW171429   5.840   8.455   6.524
22545SOL    HW271430   5.771   8.603   6.527
22546SOL     OW71431   6.206   9.234   7.025
22546SOL    HW171432   6.114   9.217   7.060
22546SOL    HW271433   6.234   9.326   7.051
22547SOL     OW71434   6.192   8.412   5.709
22547SOL    HW171435   6.199   8.496   5.655
22547SOL    HW271436   6.238   8.425   5.797
22548SOL     OW71437   7.180   7.562   7.066
22548SOL    HW171438   7.162   7.629   6.994
22548SOL    HW271439   7.177   7.608   7.155
22549SOL     OW71440   5.708   8.091   6.149
22549SOL    HW171441   5.663   8.003   6.166
22549SOL    HW271442   5.707   8.145   6.233
22550SOL     OW71443   7.428   9.215   5.945
22550SOL    HW171444   7.482   9.186   6.025
22550SOL    HW271445   7.458   9.305   5.916
22551SOL     OW71446   5.613   9.044   5.703
22551SOL    HW171447   5.594   8.948   5.724
22551SOL    HW271448   5.580   9.102   5.778
22552SOL     OW71449   7.275   8.370   6.198
22552SOL    HW171450   7.370   8.341   6.206
22552SOL    HW271451   7.267   8.435   6.123
22553SOL     OW71452   7.227   8.556   6.018
22553SOL    HW171453   7.313   8.558   5.966
22553SOL    HW271454   7.241   8.603   6.106
22554SOL     OW71455   6.199   8.813   6.312
22554SOL    HW171456   6.150   8.726   6.321
22554SOL    HW271457   6.176   8.856   6.225
22555SOL     OW71458   6.879   8.676   7.009
22555SOL    HW171459   6.916   8.603   6.951
22555SOL    HW271460   6.931   8.681   7.094
22556SOL     OW71461   6.395   7.452   6.088
22556SOL    HW171462   6.435   7.543   6.079
22556SOL    HW271463   6.295   7.460   6.094
22557SOL     OW71464   7.111   8.447   5.776
22557SOL    HW171465   7.048   8.371   5.789
22557SOL    HW271466   7.159   8.465   5.862
22558SOL     OW71467   6.773   9.240   7.202
22558SOL    HW171468   6.797   9.300   7.126
22558SOL    HW271469   6.780   9.145   7.172
22559SOL     OW71470   5.903   7.699   7.387
22559SOL    HW171471   5.974   7.770   7.393
22559SOL    HW271472   5.815   7.738   7.415
22560SOL     OW71473   7.052   8.865   6.539
22560SOL    HW171474   6.993   8.871   6.619
22560SOL    HW271475   7.037   8.777   6.493
22561SOL     OW71476   7.253   9.162   6.158
22561SOL    HW171477   7.212   9.139   6.070
22561SOL    HW271478   7.235   9.088   6.223
22562SOL     OW71479   6.184   8.177   5.856
22562SOL    HW171480   6.208   8.246   5.788
22562SOL    HW271481   6.106   8.210   5.910
22563SOL     OW71482   6.867   7.793   6.530
22563SOL    HW171483   6.781   7.743   6.517
22563SOL    HW271484   6.929   7.739   6.586
22564SOL     OW71485   7.162   9.110   5.893
22564SOL    HW171486   7.251   9.156   5.896
22564SOL    HW271487   7.141   9.086   5.798
22565SOL     OW71488   6.393   8.053   7.051
22565SOL    HW171489   6.346   8.050   7.140
22565SOL    HW271490   6.342   7.998   6.985
22566SOL     OW71491   6.980   7.917   7.260
22566SOL    HW171492   6.960   7.960   7.348
22566SOL    HW271493   7.058   7.855   7.269
22567SOL     OW71494   6.559   8.338   7.158
22567SOL    HW171495   6.605   8.254   7.129
22567SOL    HW271496   6.503   8.372   7.083
22568SOL     OW71497   6.577   7.858   6.828
22568SOL    HW171498   6.500   7.892   6.882
22568SOL    HW271499   6.543   7.807   6.749
22569SOL     OW71500   6.627   8.149   6.015
22569SOL    HW171501   6.653   8.145   6.111
22569SOL    HW271502   6.542   8.098   6.001
22570SOL     OW71503   5.662   8.259   6.375
22570SOL    HW171504   5.761   8.247   6.384
22570SOL    HW271505   5.638   8.354   6.396
22571SOL     OW71506   6.451   7.796   5.781
22571SOL    HW171507   6.510   7.859   5.732
22571SOL    HW271508   6.470   7.702   5.752
22572SOL     OW71509   7.305   8.033   7.417
22572SOL    HW171510   7.279   8.122   7.381
22572SOL    HW271511   7.303   7.965   7.344
22573SOL     OW71512   6.948   8.592   6.131
22573SOL    HW171513   7.031   8.563   6.083
22573SOL    HW271514   6.899   8.659   6.075
22574SOL     OW71515   6.136   7.644   6.471
22574SOL    HW171516   6.131   7.639   6.571
22574SOL    HW271517   6.138   7.740   6.442
22575SOL     OW71518   6.594   8.904   6.063
22575SOL    HW171519   6.548   8.976   6.011
22575SOL    HW271520   6.590   8.924   6.161
22576SOL     OW71521   5.937   9.249   6.439
22576SOL    HW171522   5.987   9.163   6.445
22576SOL    HW271523   6.002   9.326   6.436
22577SOL     OW71524   7.381   8.514   6.459
22577SOL    HW171525   7.319   8.499   6.383
22577SOL    HW271526   7.329   8.525   6.544
22578SOL     OW71527   6.813   8.998   7.092
22578SOL    HW171528   6.819   8.921   7.156
22578SOL    HW271529   6.761   8.972   7.012
22579SOL     OW71530   5.907   8.391   5.828
22579SOL    HW171531   5.989   8.430   5.786
22579SOL    HW271532   5.880   8.309   5.779
22580SOL     OW71533   7.044   8.183   6.314
22580SOL    HW171534   7.039   8.118   6.389
22580SOL    HW271535   7.124   8.242   6.327
22581SOL     OW71536   6.047   8.714   7.313
22581SOL    HW171537   5.997   8.715   7.227
22581SOL    HW271538   5.984   8.696   7.389
22582SOL     OW71539   6.697   9.224   5.823
22582SOL    HW171540   6.637   9.162   5.873
22582SOL    HW271541   6.728   9.180   5.738
22583SOL     OW71542   5.788   7.733   7.084
22583SOL    HW171543   5.708   7.793   7.071
22583SOL    HW271544   5.778   7.684   7.170
22584SOL     OW71545   7.218   8.825   5.667
22584SOL    HW171546   7.186   8.919   5.657
22584SOL    HW271547   7.142   8.762   5.655
22585SOL     OW71548   6.050   9.191   5.909
22585SOL    HW171549   6.083   9.230   5.995
22585SOL    HW271550   6.126   9.184   5.844
22586SOL     OW71551   6.986   7.555   6.012
22586SOL    HW171552   6.962   7.518   5.922
22586SOL    HW271553   7.085   7.571   6.016
22587SOL     OW71554   5.835   9.233   6.827
22587SOL    HW171555   5.892   9.168   6.877
22587SOL    HW271556   5.819   9.200   6.734
22588SOL     OW71557   6.526   9.146   6.490
22588SOL    HW171558   6.606   9.089   6.511
22588SOL    HW271559   6.477   9.106   6.413
22589SOL     OW71560   5.968   8.148   6.066
22589SOL    HW171561   6.013   8.058   6.063
22589SOL    HW271562   5.874   8.137   6.099
22590SOL     OW71563   7.133   7.670   7.315
22590SOL    HW171564   7.128   7.707   7.407
22590SOL    HW271565   7.061   7.601   7.303
22591SOL     OW71566   6.200   7.570   5.703
22591SOL    HW171567   6.298   7.548   5.710
22591SOL    HW271568   6.169   7.553   5.610
22592SOL     OW71569   6.367   7.712   7.335
22592SOL    HW171570   6.434   7.651   7.378
22592SOL    HW271571   6.294   7.731   7.400
22593SOL     OW71572   6.474   8.962   6.781
22593SOL    HW171573   6.451   8.937   6.687
22593SOL    HW271574   6.535   8.893   6.820
22594SOL     OW71575   6.937   8.038   7.019
22594SOL    HW171576   6.965   7.995   7.104
22594SOL    HW271577   6.962   8.134   7.020
22595SOL     OW71578   6.389   8.850   6.510
22595SOL    HW171579   6.479   8.864   6.468
22595SOL    HW271580   6.318   8.852   6.439
22596SOL     OW71581   6.508   7.951   6.485
22596SOL    HW171582   6.483   7.942   6.389
22596SOL    HW271583   6.556   7.869   6.516
22597SOL     OW71584   6.125   7.512   6.098
22597SOL    HW171585   6.044   7.513   6.156
22597SOL    HW271586   6.128   7.595   6.043
22598SOL     OW71587   7.020   8.636   5.627
22598SOL    HW171588   7.052   8.560   5.684
22598SOL    HW271589   6.928   8.663   5.657
22599SOL     OW71590   5.883   7.483   5.757
22599SOL    HW171591   5.932   7.567   5.736
22599SOL    HW271592   5.945   7.418   5.802
22600SOL     OW71593   6.521   7.684   6.066
22600SOL    HW171594   6.473   7.725   5.988
22600SOL    HW271595   6.620   7.682   6.047
22601SOL     OW71596   6.662   8.131   7.050
22601SOL    HW171597   6.582   8.070   7.053
22601SOL    HW271598   6.743   8.078   7.026
22602SOL     OW71599   6.813   9.018   6.379
22602SOL    HW171600   6.834   9.092   6.314
22602SOL    HW271601   6.881   9.018   6.452
22603SOL     OW71602   6.045   8.600   6.327
22603SOL    HW171603   5.974   8.573   6.392
22603SOL    HW271604   6.019   8.572   6.234
22604SOL     OW71605   6.857   9.245   6.177
22604SOL    HW171606   6.901   9.309   6.113
22604SOL    HW271607   6.807   9.297   6.247
22605SOL     OW71608   6.618   7.997   5.602
22605SOL    HW171609   6.577   8.079   5.563
22605SOL    HW271610   6.682   8.023   5.675
22606SOL     OW71611   6.147   7.670   6.733
22606SOL    HW171612   6.185   7.586   6.770
22606SOL    HW271613   6.059   7.689   6.777
22607SOL     OW71614   6.452   7.902   6.228
22607SOL    HW171615   6.420   7.974   6.166
22607SOL    HW271616   6.476   7.821   6.175
22608SOL     OW71617   6.603   7.487   6.339
22608SOL    HW171618   6.531   7.492   6.270
22608SOL    HW271619   6.579   7.418   6.408
22609SOL     OW71620   7.015   8.621   6.453
22609SOL    HW171621   6.960   8.537   6.446
22609SOL    HW271622   7.041   8.650   6.361
22610SOL     OW71623   7.052   8.038   6.578
22610SOL    HW171624   7.022   7.943   6.585
22610SOL    HW271625   7.125   8.054   6.644
22611SOL     OW71626   7.443   8.281   5.963
22611SOL    HW171627   7.485   8.217   6.027
22611SOL    HW271628   7.405   8.230   5.885
22612SOL     OW71629   6.074   8.833   5.760
22612SOL    HW171630   5.987   8.818   5.807
22612SOL    HW271631   6.057   8.859   5.665
22613SOL     OW71632   7.250   8.728   6.243
22613SOL    HW171633   7.349   8.736   6.257
22613SOL    HW271634   7.205   8.812   6.274
22614SOL     OW71635   6.976   8.023   5.664
22614SOL    HW171636   6.922   8.002   5.745
22614SOL    HW271637   7.067   7.982   5.673
22615SOL     OW71638   6.113   7.704   5.914
22615SOL    HW171639   6.140   7.645   5.839
22615SOL    HW271640   6.113   7.799   5.883
22616SOL     OW71641   7.340   8.671   7.174
22616SOL    HW171642   7.431   8.632   7.161
22616SOL    HW271643   7.348   8.767   7.198
22617SOL     OW71644   6.650   8.795   6.926
22617SOL    HW171645   6.570   8.772   6.981
22617SOL    HW271646   6.733   8.769   6.975
22618SOL     OW71647   7.178   9.077   7.211
22618SOL    HW171648   7.205   9.111   7.121
22618SOL    HW271649   7.257   9.039   7.257
22619SOL     OW71650   6.697   8.643   6.686
22619SOL    HW171651   6.657   8.687   6.767
22619SOL    HW271652   6.656   8.680   6.603
22620SOL     OW71653   7.224   8.547   6.665
22620SOL    HW171654   7.229   8.628   6.724
22620SOL    HW271655   7.138   8.549   6.614
22621SOL     OW71656   6.501   7.537   6.988
22621SOL    HW171657   6.526   7.517   6.893
22621SOL    HW271658   6.573   7.593   7.030
22622SOL     OW71659   6.566   8.564   7.305
22622SOL    HW171660   6.467   8.570   7.315
22622SOL    HW271661   6.589   8.484   7.249
22623SOL     OW71662   6.291   8.498   5.954
22623SOL    HW171663   6.277   8.505   6.053
22623SOL    HW271664   6.375   8.447   5.936
22624SOL     OW71665   5.996   8.261   6.837
22624SOL    HW171666   6.082   8.273   6.887
22624SOL    HW271667   5.954   8.174   6.864
22625SOL     OW71668   6.860   7.834   6.848
22625SOL    HW171669   6.881   7.908   6.912
22625SOL    HW271670   6.771   7.851   6.805
22626SOL     OW71671   5.650   9.012   6.917
22626SOL    HW171672   5.604   9.094   6.883
22626SOL    HW271673   5.748   9.031   6.926
22627SOL     OW71674   5.953   8.548   6.087
22627SOL    HW171675   5.946   8.631   6.031
22627SOL    HW271676   5.957   8.468   6.027
22628SOL     OW71677   6.152   7.985   6.451
22628SOL    HW171678   6.164   8.051   6.377
22628SOL    HW271679   6.198   8.019   6.534
22629SOL     OW71680   6.838   8.796   5.974
22629SOL    HW171681   6.888   8.873   6.014
22629SOL    HW271682   6.743   8.798   6.006
22630SOL     OW71683   6.858   8.893   6.728
22630SOL    HW171684   6.905   8.906   6.815
22630SOL    HW271685   6.792   8.819   6.737
22631SOL     OW71686   7.168   8.087   6.058
22631SOL    HW171687   7.137   8.148   6.131
22631SOL    HW271688   7.218   8.139   5.989
22632SOL     OW71689   5.940   8.958   6.915
22632SOL    HW171690   5.919   8.914   6.828
22632SOL    HW271691   6.037   8.984   6.918
22633SOL     OW71692   5.988   8.199   7.184
22633SOL    HW171693   6.056   8.254   7.137
22633SOL    HW271694   6.028   8.111   7.211
22634SOL     OW71695   7.173   8.227   7.256
22634SOL    HW171696   7.081   8.265   7.251
22634SOL    HW271697   7.233   8.274   7.191
22635SOL     OW71698   6.599   7.553   7.356
22635SOL    HW171699   6.605   7.638   7.304
22635SOL    HW271700   6.631   7.477   7.299
22636SOL     OW71701   6.090   7.498   7.326
22636SOL    HW171702   6.048   7.441   7.256
22636SOL    HW271703   6.024   7.567   7.358
22637SOL     OW71704   6.159   8.318   6.615
22637SOL    HW171705   6.203   8.407   6.606
22637SOL    HW271706   6.096   8.318   6.692
22638SOL     OW71707   6.946   8.310   6.631
22638SOL    HW171708   6.871   8.310   6.565
22638SOL    HW271709   6.983   8.218   6.640
22639SOL     OW71710   6.795   7.973   5.861
22639SOL    HW171711   6.808   7.889   5.915
22639SOL    HW271712   6.766   8.047   5.921
22640SOL     OW71713   5.893   7.661   6.817
22640SOL    HW171714   5.870   7.698   6.907
22640SOL    HW271715   5.863   7.566   6.811
22641SOL     OW71716   5.623   8.758   6.868
22641SOL    HW171717   5.676   8.709   6.936
22641SOL    HW271718   5.645   8.856   6.873
22642SOL     OW71719   6.318   8.082   6.650
22642SOL    HW171720   6.377   8.056   6.574
22642SOL    HW271721   6.290   8.178   6.639
22643SOL     OW71722   7.314   8.383   7.440
22643SOL    HW171723   7.268   8.376   7.351
22643SOL    HW271724   7.252   8.427   7.506
22644SOL     OW71725   5.893   7.511   6.204
22644SOL    HW171726   5.882   7.605   6.237
22644SOL    HW271727   5.888   7.448   6.281
22645SOL     OW71728   7.208   7.815   5.960
22645SOL    HW171729   7.210   7.739   6.024
22645SOL    HW271730   7.160   7.892   6.000
22646SOL     OW71731   6.609   8.214   6.552
22646SOL    HW171732   6.624   8.235   6.648
22646SOL    HW271733   6.579   8.119   6.543
22647SOL     OW71734   6.566   9.021   7.286
22647SOL    HW171735   6.546   9.065   7.198
22647SOL    HW271736   6.605   8.930   7.270
22648SOL     OW71737   7.445   8.966   7.191
22648SOL    HW171738   7.459   8.993   7.096
22648SOL    HW271739   7.528   8.988   7.244
22649SOL     OW71740   7.126   7.722   5.711
22649SOL    HW171741   7.065   7.647   5.734
22649SOL    HW271742   7.148   7.774   5.794
22650SOL     OW71743   6.889   8.286   5.628
22650SOL    HW171744   6.923   8.193   5.643
22650SOL    HW271745   6.907   8.313   5.533
22651SOL     OW71746   6.654   8.781   6.435
22651SOL    HW171747   6.661   8.697   6.380
22651SOL    HW271748   6.716   8.850   6.399
22652SOL     OW71749   5.905   8.258   6.535
22652SOL    HW171750   5.998   8.294   6.540
22652SOL    HW271751   5.899   8.173   6.587
22653SOL     OW71752   5.925   7.957   6.592
22653SOL    HW171753   5.873   7.874   6.575
22653SOL    HW271754   6.002   7.962   6.528
22654SOL     OW71755   6.724   7.828   7.264
22654SOL    HW171756   6.679   7.891   7.328
22654SOL    HW271757   6.817   7.859   7.247
22655SOL     OW71758   6.746   7.655   7.063
22655SOL    HW171759   6.746   7.719   7.140
22655SOL    HW271760   6.774   7.703   6.980
22656SOL     OW71761   5.594   8.774   5.786
22656SOL    HW171762   5.501   8.795   5.755
22656SOL    HW271763   5.604   8.675   5.799
22657SOL     OW71764   5.674   9.249   6.513
22657SOL    HW171765   5.632   9.163   6.486
22657SOL    HW271766   5.768   9.252   6.479
22658SOL     OW71767   6.090   9.016   6.496
22658SOL    HW171768   6.156   9.090   6.505
22658SOL    HW271769   6.134   8.937   6.454
22659SOL     OW71770   6.588   8.244   6.824
22659SOL    HW171771   6.629   8.212   6.910
22659SOL    HW271772   6.492   8.217   6.821
22660SOL     OW71773   5.626   7.992   6.700
22660SOL    HW171774   5.711   7.959   6.659
22660SOL    HW271775   5.639   8.007   6.798
22661SOL     OW71776   6.955   8.398   7.246
22661SOL    HW171777   6.994   8.487   7.266
22661SOL    HW271778   6.965   8.378   7.149
22662SOL     OW71779   6.401   8.020   5.911
22662SOL    HW171780   6.408   7.931   5.865
22662SOL    HW271781   6.307   8.054   5.903
22663SOL     OW71782   7.243   8.052   6.792
22663SOL    HW171783   7.205   7.983   6.854
22663SOL    HW271784   7.325   8.016   6.748
22664SOL     OW71785   6.257   7.912   6.855
22664SOL    HW171786   6.223   7.823   6.825
22664SOL    HW271787   6.283   7.966   6.775
22665SOL     OW71788   6.516   9.126   7.051
22665SOL    HW171789   6.492   9.108   6.956
22665SOL    HW271790   6.546   9.220   7.061
22666SOL     OW71791   6.059   7.948   5.777
22666SOL    HW171792   6.120   8.028   5.781
22666SOL    HW271793   5.964   7.979   5.784
22667SOL     OW71794   5.745   8.585   7.052
22667SOL    HW171795   5.767   8.524   7.128
22667SOL    HW271796   5.755   8.536   6.966
22668SOL     OW71797   6.933   8.507   6.820
22668SOL    HW171798   6.957   8.444   6.746
22668SOL    HW271799   6.843   8.547   6.802
22669SOL     OW71800   6.888   8.303   5.895
22669SOL    HW171801   6.802   8.272   5.937
22669SOL    HW271802   6.884   8.289   5.796
22670SOL     OW71803   7.345   9.195   6.740
22670SOL    HW171804   7.406   9.225   6.667
22670SOL    HW271805   7.307   9.106   6.718
22671SOL     OW71806   6.838   9.179   6.714
22671SOL    HW171807   6.922   9.184   6.660
22671SOL    HW271808   6.815   9.083   6.732
22672SOL     OW71809   5.669   8.706   6.608
22672SOL    HW171810   5.664   8.705   6.708
22672SOL    HW271811   5.586   8.665   6.570
22673SOL     OW71812   6.274   9.110   7.302
22673SOL    HW171813   6.218   9.191   7.311
22673SOL    HW271814   6.326   9.114   7.216
22674SOL     OW71815   7.312   7.583   6.109
22674SOL    HW171816   7.385   7.566   6.042
22674SOL    HW271817   7.281   7.496   6.147
22675SOL     OW71818   6.974   9.021   6.063
22675SOL    HW171819   7.041   9.033   5.989
22675SOL    HW271820   6.934   9.110   6.086
22676SOL     OW71821   6.866   8.375   6.258
22676SOL    HW171822   6.926   8.294   6.260
22676SOL    HW271823   6.906   8.444   6.198
22677SOL     OW71824   6.416   8.721   7.008
22677SOL    HW171825   6.411   8.754   7.103
22677SOL    HW271826   6.330   8.740   6.962
22678SOL     OW71827   6.258   9.064   5.740
22678SOL    HW171828   6.267   9.074   5.641
22678SOL    HW271829   6.218   8.975   5.761
22679SOL     OW71830   7.236   9.168   6.980
22679SOL    HW171831   7.289   9.178   6.896
22679SOL    HW271832   7.209   9.258   7.014
22680SOL     OW71833   7.427   7.623   6.549
22680SOL    HW171834   7.466   7.538   6.513
22680SOL    HW271835   7.329   7.625   6.530
22681SOL     OW71836   5.849   7.774   6.306
22681SOL    HW171837   5.770   7.825   6.272
22681SOL    HW271838   5.840   7.759   6.404
22682SOL     OW71839   6.780   9.060   5.617
22682SOL    HW171840   6.786   8.967   5.654
22682SOL    HW271841   6.721   9.060   5.537
22683SOL     OW71842   6.408   8.450   6.958
22683SOL    HW171843   6.448   8.449   6.866
22683SOL    HW271844   6.418   8.542   6.998
22684SOL     OW71845   6.502   8.358   5.877
22684SOL    HW171846   6.565   8.396   5.809
22684SOL    HW271847   6.542   8.275   5.916
22685SOL     OW71848   7.090   9.055   5.630
22685SOL    HW171849   6.998   9.092   5.637
22685SOL    HW271850   7.128   9.075   5.540
22686SOL     OW71851   5.958   8.736   7.076
22686SOL    HW171852   5.945   8.829   7.042
22686SOL    HW271853   5.874   8.684   7.063
22687SOL     OW71854   7.200   8.740   6.875
22687SOL    HW171855   7.260   8.743   6.955
22687SOL    HW271856   7.125   8.804   6.888
22688SOL     OW71857   6.625   8.546   6.282
22688SOL    HW171858   6.555   8.499   6.336
22688SOL    HW271859   6.684   8.478   6.239
22689SOL     OW71860   6.600   7.684   6.557
22689SOL    HW171861   6.592   7.648   6.464
22689SOL    HW271862   6.598   7.608   6.622
22690SOL     OW71863   6.176   8.935   6.077
22690SOL    HW171864   6.218   8.877   6.007
22690SOL    HW271865   6.132   9.014   6.033
22691SOL     OW71866   7.295   7.833   6.967
22691SOL    HW171867   7.368   7.902   6.971
22691SOL    HW271868   7.323   7.758   6.908
22692SOL     OW71869   5.841   8.796   5.876
22692SOL    HW171870   5.745   8.797   5.849
22692SOL    HW271871   5.853   8.849   5.960
22693SOL     OW71872   6.258   7.651   7.075
22693SOL    HW171873   6.348   7.635   7.035
22693SOL    HW271874   6.266   7.656   7.174
22694SOL     OW71875   5.661   7.793   5.619
22694SOL    HW171876   5.569   7.765   5.590
22694SOL    HW271877   5.692   7.870   5.563
22695SOL     OW71878   7.026   8.304   6.984
22695SOL    HW171879   6.969   8.356   6.921
22695SOL    HW271880   7.122   8.316   6.960
22696SOL     OW71881   5.658   7.614   5.904
22696SOL    HW171882   5.641   7.697   5.850
22696SOL    HW271883   5.748   7.577   5.882
22697SOL     OW71884   6.769   8.783   5.705
22697SOL    HW171885   6.670   8.772   5.707
22697SOL    HW271886   6.803   8.798   5.798
22698SOL     OW71887   6.199   8.290   7.017
22698SOL    HW171888   6.255   8.371   7.000
22698SOL    HW271889   6.258   8.210   7.020
22699SOL     OW71890   7.079   9.215   6.545
22699SOL    HW171891   7.112   9.279   6.476
22699SOL    HW271892   7.145   9.209   6.620
22700SOL     OW71893   6.302   8.013   7.294
22700SOL    HW171894   6.321   8.078   7.368
22700SOL    HW271895   6.362   7.933   7.303
22701SOL     OW71896   7.036   8.668   7.219
22701SOL    HW171897   7.027   8.658   7.318
22701SOL    HW271898   7.132   8.661   7.193
22702SOL     OW71899   5.976   9.189   7.146
22702SOL    HW171900   5.885   9.230   7.144
22702SOL    HW271901   5.969   9.095   7.178
22703SOL     OW71902   7.260   8.331   6.840
22703SOL    HW171903   7.233   8.242   6.803
22703SOL    HW271904   7.261   8.399   6.767
22704SOL     OW71905   6.811   7.773   6.035
22704SOL    HW171906   6.876   7.699   6.024
22704SOL    HW271907   6.831   7.823   6.119
22705SOL     OW71908   6.180   8.193   6.238
22705SOL    HW171909   6.230   8.278   6.219
22705SOL    HW271910   6.092   8.195   6.190
22706SOL     OW71911   7.363   7.790   7.228
22706SOL    HW171912   7.346   7.821   7.134
22706SOL    HW271913   7.279   7.753   7.266
22707SOL     OW71914   7.316   8.382   7.103
22707SOL    HW171915   7.354   8.473   7.118
22707SOL    HW271916   7.308   8.365   7.004
22708SOL     OW71917   6.445   8.822   5.602
22708SOL    HW171918   6.399   8.837   5.690
22708SOL    HW271919   6.489   8.907   5.572
22709SOL     OW71920   6.247   9.238   6.539
22709SOL    HW171921   6.201   9.326   6.526
22709SOL    HW271922   6.346   9.250   6.532
22710SOL     OW71923   6.445   8.404   6.447
22710SOL    HW171924   6.499   8.335   6.495
22710SOL    HW271925   6.413   8.473   6.513
22711SOL     OW71926   6.669   8.432   5.673
22711SOL    HW171927   6.646   8.485   5.591
22711SOL    HW271928   6.750   8.376   5.654
22712SOL     OW71929   7.447   9.017   6.437
22712SOL    HW171930   7.376   9.005   6.367
22712SOL    HW271931   7.448   8.938   6.497
22713SOL     OW71932   5.807   8.762   7.430
22713SOL    HW171933   5.742   8.689   7.409
22713SOL    HW271934   5.811   8.776   7.528
22714SOL     OW71935   5.665   8.688   6.239
22714SOL    HW171936   5.664   8.641   6.327
22714SOL    HW271937   5.747   8.660   6.188
22715SOL     OW71938   6.258   8.839   7.210
22715SOL    HW171939   6.180   8.789   7.248
22715SOL    HW271940   6.255   8.934   7.241
22716SOL     OW71941   7.410   7.640   6.813
22716SOL    HW171942   7.406   7.550   6.857
22716SOL    HW271943   7.413   7.629   6.714
22717SOL     OW71944   6.014   7.872   6.106
22717SOL    HW171945   6.044   7.800   6.044
22717SOL    HW271946   5.975   7.832   6.189
22718SOL     OW71947   7.291   8.935   6.690
22718SOL    HW171948   7.198   8.910   6.663
22718SOL    HW271949   7.317   8.885   6.772
22719SOL     OW71950   5.903   7.995   6.866
22719SOL    HW171951   5.941   7.936   6.938
22719SOL    HW271952   5.943   7.969   6.778
22720SOL     OW71953   6.398   9.034   6.273
22720SOL    HW171954   6.430   9.044   6.179
22720SOL    HW271955   6.319   8.972   6.275
22721SOL     OW71956   7.010   7.662   6.698
22721SOL    HW171957   7.062   7.597   6.753
22721SOL    HW271958   6.961   7.725   6.759
22722SOL     OW71959   6.587   7.482   6.740
22722SOL    HW171960   6.524   7.410   6.709
22722SOL    HW271961   6.680   7.446   6.740
22723SOL     OW71962   6.356   8.778   5.887
22723SOL    HW171963   6.310   8.691   5.904
22723SOL    HW271964   6.447   8.775   5.928
22724SOL     OW71965   6.204   9.015   6.870
22724SOL    HW171966   6.199   9.097   6.927
22724SOL    HW271967   6.293   9.012   6.825
22725SOL     OW71968   6.938   7.500   5.754
22725SOL    HW171969   6.973   7.459   5.670
22725SOL    HW271970   6.848   7.462   5.774
22726SOL     OW71971   6.886   7.901   6.277
22726SOL    HW171972   6.827   7.981   6.281
22726SOL    HW271973   6.901   7.866   6.370
22727SOL     OW71974   7.179   7.669   6.468
22727SOL    HW171975   7.095   7.668   6.522
22727SOL    HW271976   7.181   7.752   6.412
22728SOL     OW71977   5.625   8.525   5.886
22728SOL    HW171978   5.724   8.514   5.877
22728SOL    HW271979   5.585   8.439   5.918
22729SOL     OW71980   6.461   9.094   5.923
22729SOL    HW171981   6.384   9.059   5.869
22729SOL    HW271982   6.429   9.165   5.985
22730SOL     OW71983   5.811   7.723   8.444
22730SOL    HW171984   5.846   7.706   8.536
22730SOL    HW271985   5.723   7.678   8.432
22731SOL     OW71986   5.605   7.816   8.095
22731SOL    HW171987   5.523   7.859   8.134
22731SOL    HW271988   5.577   7.743   8.032
22732SOL     OW71989   6.155   8.723   8.613
22732SOL    HW171990   6.062   8.716   8.576
22732SOL    HW271991   6.166   8.812   8.657
22733SOL     OW71992   7.141   8.959   8.151
22733SOL    HW171993   7.084   8.943   8.232
22733SOL    HW271994   7.082   8.969   8.071
22734SOL     OW71995   6.721   8.151   8.165
22734SOL    HW171996   6.778   8.229   8.140
22734SOL    HW271997   6.661   8.177   8.241
22735SOL     OW71998   7.341   8.055   7.679
22735SOL    HW171999   7.329   8.042   7.580
22735SOL    HW272000   7.311   7.974   7.728
22736SOL     OW72001   6.354   8.592   8.471
22736SOL    HW172002   6.276   8.609   8.531
22736SOL    HW272003   6.388   8.679   8.435
22737SOL     OW72004   6.436   8.246   9.271
22737SOL    HW172005   6.432   8.322   9.336
22737SOL    HW272006   6.458   8.282   9.180
22738SOL     OW72007   6.271   8.460   8.113
22738SOL    HW172008   6.340   8.444   8.183
22738SOL    HW272009   6.198   8.517   8.151
22739SOL     OW72010   6.272   8.609   9.251
22739SOL    HW172011   6.332   8.688   9.265
22739SOL    HW272012   6.186   8.640   9.210
22740SOL     OW72013   5.921   8.883   8.509
22740SOL    HW172014   5.843   8.852   8.456
22740SOL    HW272015   5.979   8.941   8.452
22741SOL     OW72016   7.046   8.953   8.787
22741SOL    HW172017   7.070   9.047   8.813
22741SOL    HW272018   7.030   8.899   8.869
22742SOL     OW72019   6.024   7.840   8.947
22742SOL    HW172020   6.106   7.784   8.956
22742SOL    HW272021   5.943   7.782   8.951
22743SOL     OW72022   7.189   7.895   8.185
22743SOL    HW172023   7.115   7.941   8.135
22743SOL    HW272024   7.240   7.963   8.238
22744SOL     OW72025   5.817   9.161   7.931
22744SOL    HW172026   5.851   9.238   7.985
22744SOL    HW272027   5.861   9.161   7.841
22745SOL     OW72028   6.713   8.789   9.138
22745SOL    HW172029   6.760   8.789   9.226
22745SOL    HW272030   6.665   8.702   9.127
22746SOL     OW72031   5.816   8.882   7.986
22746SOL    HW172032   5.790   8.978   7.986
22746SOL    HW272033   5.745   8.828   8.031
22747SOL     OW72034   5.826   8.539   8.334
22747SOL    HW172035   5.840   8.455   8.386
22747SOL    HW272036   5.771   8.603   8.389
22748SOL     OW72037   6.206   9.234   8.887
22748SOL    HW172038   6.114   9.217   8.922
22748SOL    HW272039   6.234   9.326   8.913
22749SOL     OW72040   6.192   8.412   7.571
22749SOL    HW172041   6.199   8.496   7.517
22749SOL    HW272042   6.238   8.425   7.659
22750SOL     OW72043   7.180   7.562   8.928
22750SOL    HW172044   7.162   7.629   8.856
22750SOL    HW272045   7.177   7.608   9.017
22751SOL     OW72046   5.708   8.091   8.011
22751SOL    HW172047   5.663   8.003   8.028
22751SOL    HW272048   5.707   8.145   8.095
22752SOL     OW72049   7.428   9.215   7.807
22752SOL    HW172050   7.482   9.186   7.887
22752SOL    HW272051   7.458   9.305   7.778
22753SOL     OW72052   7.275   8.370   8.060
22753SOL    HW172053   7.370   8.341   8.068
22753SOL    HW272054   7.267   8.435   7.985
22754SOL     OW72055   7.227   8.556   7.880
22754SOL    HW172056   7.313   8.558   7.828
22754SOL    HW272057   7.241   8.603   7.968
22755SOL     OW72058   5.699   8.185   9.045
22755SOL    HW172059   5.787   8.172   9.090
22755SOL    HW272060   5.686   8.282   9.023
22756SOL     OW72061   6.879   8.676   8.871
22756SOL    HW172062   6.916   8.603   8.813
22756SOL    HW272063   6.931   8.681   8.956
22757SOL     OW72064   6.395   7.452   7.950
22757SOL    HW172065   6.435   7.543   7.941
22757SOL    HW272066   6.295   7.460   7.956
22758SOL     OW72067   5.783   8.424   8.712
22758SOL    HW172068   5.872   8.379   8.698
22758SOL    HW272069   5.710   8.359   8.693
22759SOL     OW72070   7.111   8.447   7.638
22759SOL    HW172071   7.048   8.371   7.651
22759SOL    HW272072   7.159   8.465   7.724
22760SOL     OW72073   6.773   9.240   9.064
22760SOL    HW172074   6.797   9.300   8.988
22760SOL    HW272075   6.780   9.145   9.034
22761SOL     OW72076   7.052   8.865   8.401
22761SOL    HW172077   6.993   8.871   8.481
22761SOL    HW272078   7.037   8.777   8.355
22762SOL     OW72079   7.253   9.162   8.020
22762SOL    HW172080   7.212   9.139   7.932
22762SOL    HW272081   7.235   9.088   8.085
22763SOL     OW72082   6.184   8.177   7.718
22763SOL    HW172083   6.208   8.246   7.650
22763SOL    HW272084   6.106   8.210   7.772
22764SOL     OW72085   6.867   7.793   8.392
22764SOL    HW172086   6.781   7.743   8.379
22764SOL    HW272087   6.929   7.739   8.448
22765SOL     OW72088   7.162   9.110   7.755
22765SOL    HW172089   7.251   9.156   7.758
22765SOL    HW272090   7.141   9.086   7.660
22766SOL     OW72091   6.393   8.053   8.913
22766SOL    HW172092   6.346   8.050   9.002
22766SOL    HW272093   6.342   7.998   8.847
22767SOL     OW72094   6.980   7.917   9.122
22767SOL    HW172095   6.960   7.960   9.210
22767SOL    HW272096   7.058   7.855   9.131
22768SOL     OW72097   6.559   8.338   9.020
22768SOL    HW172098   6.605   8.254   8.991
22768SOL    HW272099   6.503   8.372   8.945
22769SOL     OW72100   6.577   7.858   8.690
22769SOL    HW172101   6.500   7.892   8.744
22769SOL    HW272102   6.543   7.807   8.611
22770SOL     OW72103   6.627   8.149   7.877
22770SOL    HW172104   6.653   8.145   7.973
22770SOL    HW272105   6.542   8.098   7.863
22771SOL     OW72106   5.662   8.259   8.237
22771SOL    HW172107   5.761   8.247   8.246
22771SOL    HW272108   5.638   8.354   8.258
22772SOL     OW72109   5.716   9.269   9.019
22772SOL    HW172110   5.706   9.254   9.118
22772SOL    HW272111   5.630   9.305   8.983
22773SOL     OW72112   6.451   7.796   7.643
22773SOL    HW172113   6.510   7.859   7.594
22773SOL    HW272114   6.470   7.702   7.614
22774SOL     OW72115   7.305   8.033   9.279
22774SOL    HW172116   7.279   8.122   9.243
22774SOL    HW272117   7.303   7.965   9.206
22775SOL     OW72118   6.948   8.592   7.993
22775SOL    HW172119   7.031   8.563   7.945
22775SOL    HW272120   6.899   8.659   7.937
22776SOL     OW72121   6.136   7.644   8.333
22776SOL    HW172122   6.131   7.639   8.433
22776SOL    HW272123   6.138   7.740   8.304
22777SOL     OW72124   6.594   8.904   7.925
22777SOL    HW172125   6.548   8.976   7.873
22777SOL    HW272126   6.590   8.924   8.023
22778SOL     OW72127   7.381   8.514   8.321
22778SOL    HW172128   7.319   8.499   8.245
22778SOL    HW272129   7.329   8.525   8.406
22779SOL     OW72130   6.813   8.998   8.954
22779SOL    HW172131   6.819   8.921   9.018
22779SOL    HW272132   6.761   8.972   8.874
22780SOL     OW72133   5.907   8.391   7.690
22780SOL    HW172134   5.989   8.430   7.648
22780SOL    HW272135   5.880   8.309   7.641
22781SOL     OW72136   7.044   8.183   8.176
22781SOL    HW172137   7.039   8.118   8.251
22781SOL    HW272138   7.124   8.242   8.189
22782SOL     OW72139   6.047   8.714   9.175
22782SOL    HW172140   5.997   8.715   9.089
22782SOL    HW272141   5.984   8.696   9.251
22783SOL     OW72142   6.697   9.224   7.685
22783SOL    HW172143   6.637   9.162   7.735
22783SOL    HW272144   6.728   9.180   7.600
22784SOL     OW72145   5.788   7.733   8.946
22784SOL    HW172146   5.708   7.793   8.933
22784SOL    HW272147   5.778   7.684   9.032
22785SOL     OW72148   7.218   8.825   7.529
22785SOL    HW172149   7.186   8.919   7.519
22785SOL    HW272150   7.142   8.762   7.517
22786SOL     OW72151   6.050   9.191   7.771
22786SOL    HW172152   6.083   9.230   7.857
22786SOL    HW272153   6.126   9.184   7.706
22787SOL     OW72154   6.986   7.555   7.874
22787SOL    HW172155   6.962   7.518   7.784
22787SOL    HW272156   7.085   7.571   7.878
22788SOL     OW72157   5.835   9.233   8.689
22788SOL    HW172158   5.892   9.168   8.739
22788SOL    HW272159   5.819   9.200   8.596
22789SOL     OW72160   6.526   9.146   8.352
22789SOL    HW172161   6.606   9.089   8.373
22789SOL    HW272162   6.477   9.106   8.275
22790SOL     OW72163   5.968   8.148   7.928
22790SOL    HW172164   6.013   8.058   7.925
22790SOL    HW272165   5.874   8.137   7.961
22791SOL     OW72166   7.133   7.670   9.177
22791SOL    HW172167   7.128   7.707   9.269
22791SOL    HW272168   7.061   7.601   9.165
22792SOL     OW72169   6.200   7.570   7.565
22792SOL    HW172170   6.298   7.548   7.572
22792SOL    HW272171   6.169   7.553   7.472
22793SOL     OW72172   6.367   7.712   9.197
22793SOL    HW172173   6.434   7.651   9.240
22793SOL    HW272174   6.294   7.731   9.262
22794SOL     OW72175   6.474   8.962   8.643
22794SOL    HW172176   6.451   8.937   8.549
22794SOL    HW272177   6.535   8.893   8.682
22795SOL     OW72178   6.937   8.038   8.881
22795SOL    HW172179   6.965   7.995   8.966
22795SOL    HW272180   6.962   8.134   8.882
22796SOL     OW72181   6.389   8.850   8.372
22796SOL    HW172182   6.479   8.864   8.330
22796SOL    HW272183   6.318   8.852   8.301
22797SOL     OW72184   6.508   7.951   8.347
22797SOL    HW172185   6.483   7.942   8.251
22797SOL    HW272186   6.556   7.869   8.378
22798SOL     OW72187   6.125   7.512   7.960
22798SOL    HW172188   6.044   7.513   8.018
22798SOL    HW272189   6.128   7.595   7.905
22799SOL     OW72190   7.020   8.636   7.489
22799SOL    HW172191   7.052   8.560   7.546
22799SOL    HW272192   6.928   8.663   7.519
22800SOL     OW72193   5.883   7.483   7.619
22800SOL    HW172194   5.932   7.567   7.598
22800SOL    HW272195   5.945   7.418   7.664
22801SOL     OW72196   6.521   7.684   7.928
22801SOL    HW172197   6.473   7.725   7.850
22801SOL    HW272198   6.620   7.682   7.909
22802SOL     OW72199   6.662   8.131   8.912
22802SOL    HW172200   6.582   8.070   8.915
22802SOL    HW272201   6.743   8.078   8.888
22803SOL     OW72202   6.813   9.018   8.241
22803SOL    HW172203   6.834   9.092   8.176
22803SOL    HW272204   6.881   9.018   8.314
22804SOL     OW72205   6.857   9.245   8.039
22804SOL    HW172206   6.901   9.309   7.975
22804SOL    HW272207   6.807   9.297   8.109
22805SOL     OW72208   6.618   7.997   7.464
22805SOL    HW172209   6.577   8.079   7.425
22805SOL    HW272210   6.682   8.023   7.537
22806SOL     OW72211   5.664   8.004   8.834
22806SOL    HW172212   5.756   8.003   8.793
22806SOL    HW272213   5.658   8.078   8.901
22807SOL     OW72214   6.147   7.670   8.595
22807SOL    HW172215   6.185   7.586   8.632
22807SOL    HW272216   6.059   7.689   8.639
22808SOL     OW72217   6.452   7.902   8.090
22808SOL    HW172218   6.420   7.974   8.028
22808SOL    HW272219   6.476   7.821   8.037
22809SOL     OW72220   6.603   7.487   8.201
22809SOL    HW172221   6.531   7.492   8.132
22809SOL    HW272222   6.579   7.418   8.270
22810SOL     OW72223   7.015   8.621   8.315
22810SOL    HW172224   6.960   8.537   8.308
22810SOL    HW272225   7.041   8.650   8.223
22811SOL     OW72226   7.052   8.038   8.440
22811SOL    HW172227   7.022   7.943   8.447
22811SOL    HW272228   7.125   8.054   8.506
22812SOL     OW72229   7.443   8.281   7.825
22812SOL    HW172230   7.485   8.217   7.889
22812SOL    HW272231   7.405   8.230   7.747
22813SOL     OW72232   6.074   8.833   7.622
22813SOL    HW172233   5.987   8.818   7.669
22813SOL    HW272234   6.057   8.859   7.527
22814SOL     OW72235   7.250   8.728   8.105
22814SOL    HW172236   7.349   8.736   8.119
22814SOL    HW272237   7.205   8.812   8.136
22815SOL     OW72238   6.976   8.023   7.526
22815SOL    HW172239   6.922   8.002   7.607
22815SOL    HW272240   7.067   7.982   7.535
22816SOL     OW72241   6.113   7.704   7.776
22816SOL    HW172242   6.140   7.645   7.701
22816SOL    HW272243   6.113   7.799   7.745
22817SOL     OW72244   7.340   8.671   9.036
22817SOL    HW172245   7.431   8.632   9.023
22817SOL    HW272246   7.348   8.767   9.060
22818SOL     OW72247   6.650   8.795   8.788
22818SOL    HW172248   6.570   8.772   8.843
22818SOL    HW272249   6.733   8.769   8.837
22819SOL     OW72250   7.178   9.077   9.073
22819SOL    HW172251   7.205   9.111   8.983
22819SOL    HW272252   7.257   9.039   9.119
22820SOL     OW72253   6.697   8.643   8.548
22820SOL    HW172254   6.657   8.687   8.629
22820SOL    HW272255   6.656   8.680   8.465
22821SOL     OW72256   7.224   8.547   8.527
22821SOL    HW172257   7.229   8.628   8.586
22821SOL    HW272258   7.138   8.549   8.476
22822SOL     OW72259   6.501   7.537   8.850
22822SOL    HW172260   6.526   7.517   8.755
22822SOL    HW272261   6.573   7.593   8.892
22823SOL     OW72262   6.566   8.564   9.167
22823SOL    HW172263   6.467   8.570   9.177
22823SOL    HW272264   6.589   8.484   9.111
22824SOL     OW72265   6.291   8.498   7.816
22824SOL    HW172266   6.277   8.505   7.915
22824SOL    HW272267   6.375   8.447   7.798
22825SOL     OW72268   5.996   8.261   8.699
22825SOL    HW172269   6.082   8.273   8.749
22825SOL    HW272270   5.954   8.174   8.726
22826SOL     OW72271   6.860   7.834   8.710
22826SOL    HW172272   6.881   7.908   8.774
22826SOL    HW272273   6.771   7.851   8.667
22827SOL     OW72274   5.650   9.012   8.779
22827SOL    HW172275   5.604   9.094   8.745
22827SOL    HW272276   5.748   9.031   8.788
22828SOL     OW72277   5.953   8.548   7.949
22828SOL    HW172278   5.946   8.631   7.893
22828SOL    HW272279   5.957   8.468   7.889
22829SOL     OW72280   6.152   7.985   8.313
22829SOL    HW172281   6.164   8.051   8.239
22829SOL    HW272282   6.198   8.019   8.396
22830SOL     OW72283   6.838   8.796   7.836
22830SOL    HW172284   6.888   8.873   7.876
22830SOL    HW272285   6.743   8.798   7.868
22831SOL     OW72286   6.858   8.893   8.590
22831SOL    HW172287   6.905   8.906   8.677
22831SOL    HW272288   6.792   8.819   8.599
22832SOL     OW72289   7.168   8.087   7.920
22832SOL    HW172290   7.137   8.148   7.993
22832SOL    HW272291   7.218   8.139   7.851
22833SOL     OW72292   5.940   8.958   8.777
22833SOL    HW172293   5.919   8.914   8.690
22833SOL    HW272294   6.037   8.984   8.780
22834SOL     OW72295   5.988   8.199   9.046
22834SOL    HW172296   6.056   8.254   8.999
22834SOL    HW272297   6.028   8.111   9.073
22835SOL     OW72298   7.173   8.227   9.118
22835SOL    HW172299   7.081   8.265   9.113
22835SOL    HW272300   7.233   8.274   9.053
22836SOL     OW72301   6.599   7.553   9.218
22836SOL    HW172302   6.605   7.638   9.166
22836SOL    HW272303   6.631   7.477   9.161
22837SOL     OW72304   6.090   7.498   9.188
22837SOL    HW172305   6.048   7.441   9.118
22837SOL    HW272306   6.024   7.567   9.220
22838SOL     OW72307   6.159   8.318   8.477
22838SOL    HW172308   6.203   8.407   8.468
22838SOL    HW272309   6.096   8.318   8.554
22839SOL     OW72310   6.946   8.310   8.493
22839SOL    HW172311   6.871   8.310   8.427
22839SOL    HW272312   6.983   8.218   8.502
22840SOL     OW72313   6.795   7.973   7.723
22840SOL    HW172314   6.808   7.889   7.777
22840SOL    HW272315   6.766   8.047   7.783
22841SOL     OW72316   5.893   7.661   8.679
22841SOL    HW172317   5.870   7.698   8.769
22841SOL    HW272318   5.863   7.566   8.673
22842SOL     OW72319   5.623   8.758   8.730
22842SOL    HW172320   5.676   8.709   8.798
22842SOL    HW272321   5.645   8.856   8.735
22843SOL     OW72322   6.318   8.082   8.512
22843SOL    HW172323   6.377   8.056   8.436
22843SOL    HW272324   6.290   8.178   8.501
22844SOL     OW72325   7.314   8.383   9.302
22844SOL    HW172326   7.268   8.376   9.213
22844SOL    HW272327   7.252   8.427   9.368
22845SOL     OW72328   5.893   7.511   8.066
22845SOL    HW172329   5.882   7.605   8.099
22845SOL    HW272330   5.888   7.448   8.143
22846SOL     OW72331   7.208   7.815   7.822
22846SOL    HW172332   7.210   7.739   7.886
22846SOL    HW272333   7.160   7.892   7.862
22847SOL     OW72334   6.609   8.214   8.414
22847SOL    HW172335   6.624   8.235   8.510
22847SOL    HW272336   6.579   8.119   8.405
22848SOL     OW72337   6.566   9.021   9.148
22848SOL    HW172338   6.546   9.065   9.060
22848SOL    HW272339   6.605   8.930   9.132
22849SOL     OW72340   7.445   8.966   9.053
22849SOL    HW172341   7.459   8.993   8.958
22849SOL    HW272342   7.528   8.988   9.106
22850SOL     OW72343   5.936   8.346   9.252
22850SOL    HW172344   6.012   8.390   9.300
22850SOL    HW272345   5.971   8.299   9.170
22851SOL     OW72346   7.126   7.722   7.573
22851SOL    HW172347   7.065   7.647   7.596
22851SOL    HW272348   7.148   7.774   7.656
22852SOL     OW72349   6.889   8.286   7.490
22852SOL    HW172350   6.923   8.193   7.505
22852SOL    HW272351   6.907   8.313   7.395
22853SOL     OW72352   6.654   8.781   8.297
22853SOL    HW172353   6.661   8.697   8.242
22853SOL    HW272354   6.716   8.850   8.261
22854SOL     OW72355   5.905   8.258   8.397
22854SOL    HW172356   5.998   8.294   8.402
22854SOL    HW272357   5.899   8.173   8.449
22855SOL     OW72358   5.925   7.957   8.454
22855SOL    HW172359   5.873   7.874   8.437
22855SOL    HW272360   6.002   7.962   8.390
22856SOL     OW72361   6.746   7.655   8.925
22856SOL    HW172362   6.746   7.719   9.002
22856SOL    HW272363   6.774   7.703   8.842
22857SOL     OW72364   5.594   8.774   7.648
22857SOL    HW172365   5.501   8.795   7.617
22857SOL    HW272366   5.604   8.675   7.661
22858SOL     OW72367   5.674   9.249   8.375
22858SOL    HW172368   5.632   9.163   8.348
22858SOL    HW272369   5.768   9.252   8.341
22859SOL     OW72370   6.588   8.244   8.686
22859SOL    HW172371   6.629   8.212   8.772
22859SOL    HW272372   6.492   8.217   8.683
22860SOL     OW72373   5.626   7.992   8.562
22860SOL    HW172374   5.711   7.959   8.521
22860SOL    HW272375   5.639   8.007   8.660
22861SOL     OW72376   5.775   7.968   9.170
22861SOL    HW172377   5.834   7.928   9.100
22861SOL    HW272378   5.717   8.039   9.129
22862SOL     OW72379   6.955   8.398   9.108
22862SOL    HW172380   6.994   8.487   9.128
22862SOL    HW272381   6.965   8.378   9.011
22863SOL     OW72382   6.401   8.020   7.773
22863SOL    HW172383   6.408   7.931   7.727
22863SOL    HW272384   6.307   8.054   7.765
22864SOL     OW72385   7.243   8.052   8.654
22864SOL    HW172386   7.205   7.983   8.716
22864SOL    HW272387   7.325   8.016   8.610
22865SOL     OW72388   5.838   9.012   9.192
22865SOL    HW172389   5.808   9.069   9.268
22865SOL    HW272390   5.831   8.915   9.218
22866SOL     OW72391   6.257   7.912   8.717
22866SOL    HW172392   6.223   7.823   8.687
22866SOL    HW272393   6.283   7.966   8.637
22867SOL     OW72394   6.516   9.126   8.913
22867SOL    HW172395   6.492   9.108   8.818
22867SOL    HW272396   6.546   9.220   8.923
22868SOL     OW72397   6.059   7.948   7.639
22868SOL    HW172398   6.120   8.028   7.643
22868SOL    HW272399   5.964   7.979   7.646
22869SOL     OW72400   5.745   8.585   8.914
22869SOL    HW172401   5.767   8.524   8.990
22869SOL    HW272402   5.755   8.536   8.828
22870SOL     OW72403   6.933   8.507   8.682
22870SOL    HW172404   6.957   8.444   8.608
22870SOL    HW272405   6.843   8.547   8.664
22871SOL     OW72406   6.888   8.303   7.757
22871SOL    HW172407   6.802   8.272   7.799
22871SOL    HW272408   6.884   8.289   7.658
22872SOL     OW72409   7.345   9.195   8.602
22872SOL    HW172410   7.406   9.225   8.529
22872SOL    HW272411   7.307   9.106   8.580
22873SOL     OW72412   6.838   9.179   8.576
22873SOL    HW172413   6.922   9.184   8.522
22873SOL    HW272414   6.815   9.083   8.594
22874SOL     OW72415   5.669   8.706   8.470
22874SOL    HW172416   5.664   8.705   8.570
22874SOL    HW272417   5.586   8.665   8.432
22875SOL     OW72418   6.274   9.110   9.164
22875SOL    HW172419   6.218   9.191   9.173
22875SOL    HW272420   6.326   9.114   9.078
22876SOL     OW72421   7.312   7.583   7.971
22876SOL    HW172422   7.385   7.566   7.904
22876SOL    HW272423   7.281   7.496   8.009
22877SOL     OW72424   6.974   9.021   7.925
22877SOL    HW172425   7.041   9.033   7.851
22877SOL    HW272426   6.934   9.110   7.948
22878SOL     OW72427   5.716   9.242   9.299
22878SOL    HW172428   5.675   9.168   9.352
22878SOL    HW272429   5.780   9.293   9.357
22879SOL     OW72430   6.866   8.375   8.120
22879SOL    HW172431   6.926   8.294   8.122
22879SOL    HW272432   6.906   8.444   8.060
22880SOL     OW72433   6.416   8.721   8.870
22880SOL    HW172434   6.411   8.754   8.965
22880SOL    HW272435   6.330   8.740   8.824
22881SOL     OW72436   6.258   9.064   7.602
22881SOL    HW172437   6.267   9.074   7.503
22881SOL    HW272438   6.218   8.975   7.623
22882SOL     OW72439   7.236   9.168   8.842
22882SOL    HW172440   7.289   9.178   8.758
22882SOL    HW272441   7.209   9.258   8.876
22883SOL     OW72442   7.427   7.623   8.411
22883SOL    HW172443   7.466   7.538   8.375
22883SOL    HW272444   7.329   7.625   8.392
22884SOL     OW72445   5.849   7.774   8.168
22884SOL    HW172446   5.770   7.825   8.134
22884SOL    HW272447   5.840   7.759   8.266
22885SOL     OW72448   6.780   9.060   7.479
22885SOL    HW172449   6.786   8.967   7.516
22885SOL    HW272450   6.721   9.060   7.399
22886SOL     OW72451   6.408   8.450   8.820
22886SOL    HW172452   6.448   8.449   8.728
22886SOL    HW272453   6.418   8.542   8.860
22887SOL     OW72454   6.502   8.358   7.739
22887SOL    HW172455   6.565   8.396   7.671
22887SOL    HW272456   6.542   8.275   7.778
22888SOL     OW72457   7.090   9.055   7.492
22888SOL    HW172458   6.998   9.092   7.499
22888SOL    HW272459   7.128   9.075   7.402
22889SOL     OW72460   5.958   8.736   8.938
22889SOL    HW172461   5.945   8.829   8.904
22889SOL    HW272462   5.874   8.684   8.925
22890SOL     OW72463   7.200   8.740   8.737
22890SOL    HW172464   7.260   8.743   8.817
22890SOL    HW272465   7.125   8.804   8.750
22891SOL     OW72466   6.625   8.546   8.144
22891SOL    HW172467   6.555   8.499   8.198
22891SOL    HW272468   6.684   8.478   8.101
22892SOL     OW72469   6.600   7.684   8.419
22892SOL    HW172470   6.592   7.648   8.326
22892SOL    HW272471   6.598   7.608   8.484
22893SOL     OW72472   6.176   8.935   7.939
22893SOL    HW172473   6.218   8.877   7.869
22893SOL    HW272474   6.132   9.014   7.895
22894SOL     OW72475   7.295   7.833   8.829
22894SOL    HW172476   7.368   7.902   8.833
22894SOL    HW272477   7.323   7.758   8.770
22895SOL     OW72478   5.841   8.796   7.738
22895SOL    HW172479   5.745   8.797   7.711
22895SOL    HW272480   5.853   8.849   7.822
22896SOL     OW72481   5.691   8.461   9.174
22896SOL    HW172482   5.614   8.428   9.228
22896SOL    HW272483   5.776   8.431   9.216
22897SOL     OW72484   6.258   7.651   8.937
22897SOL    HW172485   6.348   7.635   8.897
22897SOL    HW272486   6.266   7.656   9.036
22898SOL     OW72487   5.661   7.793   7.481
22898SOL    HW172488   5.569   7.765   7.452
22898SOL    HW272489   5.692   7.870   7.425
22899SOL     OW72490   7.026   8.304   8.846
22899SOL    HW172491   6.969   8.356   8.783
22899SOL    HW272492   7.122   8.316   8.822
22900SOL     OW72493   5.658   7.614   7.766
22900SOL    HW172494   5.641   7.697   7.712
22900SOL    HW272495   5.748   7.577   7.744
22901SOL     OW72496   6.769   8.783   7.567
22901SOL    HW172497   6.670   8.772   7.569
22901SOL    HW272498   6.803   8.798   7.660
22902SOL     OW72499   6.199   8.290   8.879
22902SOL    HW172500   6.255   8.371   8.862
22902SOL    HW272501   6.258   8.210   8.882
22903SOL     OW72502   7.079   9.215   8.407
22903SOL    HW172503   7.112   9.279   8.338
22903SOL    HW272504   7.145   9.209   8.482
22904SOL     OW72505   7.036   8.668   9.081
22904SOL    HW172506   7.027   8.658   9.180
22904SOL    HW272507   7.132   8.661   9.055
22905SOL     OW72508   5.976   9.189   9.008
22905SOL    HW172509   5.885   9.230   9.006
22905SOL    HW272510   5.969   9.095   9.040
22906SOL     OW72511   7.260   8.331   8.702
22906SOL    HW172512   7.233   8.242   8.665
22906SOL    HW272513   7.261   8.399   8.629
22907SOL     OW72514   6.811   7.773   7.897
22907SOL    HW172515   6.876   7.699   7.886
22907SOL    HW272516   6.831   7.823   7.981
22908SOL     OW72517   6.180   8.193   8.100
22908SOL    HW172518   6.230   8.278   8.081
22908SOL    HW272519   6.092   8.195   8.052
22909SOL     OW72520   7.363   7.790   9.090
22909SOL    HW172521   7.346   7.821   8.996
22909SOL    HW272522   7.279   7.753   9.128
22910SOL     OW72523   7.316   8.382   8.965
22910SOL    HW172524   7.354   8.473   8.980
22910SOL    HW272525   7.308   8.365   8.866
22911SOL     OW72526   6.445   8.822   7.464
22911SOL    HW172527   6.399   8.837   7.552
22911SOL    HW272528   6.489   8.907   7.434
22912SOL     OW72529   6.247   9.238   8.401
22912SOL    HW172530   6.201   9.326   8.388
22912SOL    HW272531   6.346   9.250   8.394
22913SOL     OW72532   6.445   8.404   8.309
22913SOL    HW172533   6.499   8.335   8.357
22913SOL    HW272534   6.413   8.473   8.375
22914SOL     OW72535   6.669   8.432   7.535
22914SOL    HW172536   6.646   8.485   7.453
22914SOL    HW272537   6.750   8.376   7.516
22915SOL     OW72538   7.447   9.017   8.299
22915SOL    HW172539   7.376   9.005   8.229
22915SOL    HW272540   7.448   8.938   8.359
22916SOL     OW72541   5.807   8.762   9.292
22916SOL    HW172542   5.742   8.689   9.271
22916SOL    HW272543   5.811   8.776   9.390
22917SOL     OW72544   5.665   8.688   8.101
22917SOL    HW172545   5.664   8.641   8.189
22917SOL    HW272546   5.747   8.660   8.050
22918SOL     OW72547   6.258   8.839   9.072
22918SOL    HW172548   6.180   8.789   9.110
22918SOL    HW272549   6.255   8.934   9.103
22919SOL     OW72550   7.410   7.640   8.675
22919SOL    HW172551   7.406   7.550   8.719
22919SOL    HW272552   7.413   7.629   8.576
22920SOL     OW72553   6.014   7.872   7.968
22920SOL    HW172554   6.044   7.800   7.906
22920SOL    HW272555   5.975   7.832   8.051
22921SOL     OW72556   7.291   8.935   8.552
22921SOL    HW172557   7.198   8.910   8.525
22921SOL    HW272558   7.317   8.885   8.634
22922SOL     OW72559   5.903   7.995   8.728
22922SOL    HW172560   5.941   7.936   8.800
22922SOL    HW272561   5.943   7.969   8.640
22923SOL     OW72562   7.010   7.662   8.560
22923SOL    HW172563   7.062   7.597   8.615
22923SOL    HW272564   6.961   7.725   8.621
22924SOL     OW72565   6.587   7.482   8.602
22924SOL    HW172566   6.524   7.410   8.571
22924SOL    HW272567   6.680   7.446   8.602
22925SOL     OW72568   6.356   8.778   7.749
22925SOL    HW172569   6.310   8.691   7.766
22925SOL    HW272570   6.447   8.775   7.790
22926SOL     OW72571   6.204   9.015   8.732
22926SOL    HW172572   6.199   9.097   8.789
22926SOL    HW272573   6.293   9.012   8.687
22927SOL     OW72574   6.938   7.500   7.616
22927SOL    HW172575   6.973   7.459   7.532
22927SOL    HW272576   6.848   7.462   7.636
22928SOL     OW72577   6.886   7.901   8.139
22928SOL    HW172578   6.827   7.981   8.143
22928SOL    HW272579   6.901   7.866   8.232
22929SOL     OW72580   7.179   7.669   8.330
22929SOL    HW172581   7.095   7.668   8.384
22929SOL    HW272582   7.181   7.752   8.274
22930SOL     OW72583   5.625   8.525   7.748
22930SOL    HW172584   5.724   8.514   7.739
22930SOL    HW272585   5.585   8.439   7.780
22931SOL     OW72586   6.461   9.094   7.785
22931SOL    HW172587   6.384   9.059   7.731
22931SOL    HW272588   6.429   9.165   7.847
22932SOL     OW72589   7.341   8.055   9.541
22932SOL    HW172590   7.329   8.042   9.442
22932SOL    HW272591   7.311   7.974   9.590
22933SOL     OW72592   5.817   9.161   9.793
22933SOL    HW172593   5.851   9.238   9.847
22933SOL    HW272594   5.861   9.161   9.703
22934SOL     OW72595   5.816   8.882   9.848
22934SOL    HW172596   5.790   8.978   9.848
22934SOL    HW272597   5.745   8.828   9.893
22935SOL     OW72598   6.192   8.412   9.433
22935SOL    HW172599   6.199   8.496   9.379
22935SOL    HW272600   6.238   8.425   9.521
22936SOL     OW72601   5.708   8.091   9.873
22936SOL    HW172602   5.663   8.003   9.890
22936SOL    HW272603   5.707   8.145   9.957
22937SOL     OW72604   7.428   9.215   9.669
22937SOL    HW172605   7.482   9.186   9.749
22937SOL    HW272606   7.458   9.305   9.640
22938SOL     OW72607   5.613   9.044   9.427
22938SOL    HW172608   5.594   8.948   9.448
22938SOL    HW272609   5.580   9.102   9.502
22939SOL     OW72610   7.227   8.556   9.742
22939SOL    HW172611   7.313   8.558   9.690
22939SOL    HW272612   7.241   8.603   9.830
22940SOL     OW72613   6.199   8.813  10.036
22940SOL    HW172614   6.150   8.726  10.045
22940SOL    HW272615   6.176   8.856   9.949
22941SOL     OW72616   6.395   7.452   9.812
22941SOL    HW172617   6.435   7.543   9.803
22941SOL    HW272618   6.295   7.460   9.818
22942SOL     OW72619   6.184   8.177   9.580
22942SOL    HW172620   6.208   8.246   9.512
22942SOL    HW272621   6.106   8.210   9.634
22943SOL     OW72622   7.162   9.110   9.617
22943SOL    HW172623   7.251   9.156   9.620
22943SOL    HW272624   7.141   9.086   9.522
22944SOL     OW72625   6.627   8.149   9.739
22944SOL    HW172626   6.653   8.145   9.835
22944SOL    HW272627   6.542   8.098   9.725
22945SOL     OW72628   5.662   8.259  10.099
22945SOL    HW172629   5.761   8.247  10.108
22945SOL    HW272630   5.638   8.354  10.120
22946SOL     OW72631   6.451   7.796   9.505
22946SOL    HW172632   6.510   7.859   9.456
22946SOL    HW272633   6.470   7.702   9.476
22947SOL     OW72634   6.594   8.904   9.787
22947SOL    HW172635   6.548   8.976   9.735
22947SOL    HW272636   6.590   8.924   9.885
22948SOL     OW72637   5.937   9.249  10.163
22948SOL    HW172638   5.987   9.163  10.169
22948SOL    HW272639   6.002   9.326  10.160
22949SOL     OW72640   5.907   8.391   9.552
22949SOL    HW172641   5.989   8.430   9.510
22949SOL    HW272642   5.880   8.309   9.503
22950SOL     OW72643   6.697   9.224   9.547
22950SOL    HW172644   6.637   9.162   9.597
22950SOL    HW272645   6.728   9.180   9.462
22951SOL     OW72646   7.218   8.825   9.391
22951SOL    HW172647   7.186   8.919   9.381
22951SOL    HW272648   7.142   8.762   9.379
22952SOL     OW72649   6.050   9.191   9.633
22952SOL    HW172650   6.083   9.230   9.719
22952SOL    HW272651   6.126   9.184   9.568
22953SOL     OW72652   6.986   7.555   9.736
22953SOL    HW172653   6.962   7.518   9.646
22953SOL    HW272654   7.085   7.571   9.740
22954SOL     OW72655   5.968   8.148   9.790
22954SOL    HW172656   6.013   8.058   9.787
22954SOL    HW272657   5.874   8.137   9.823
22955SOL     OW72658   6.200   7.570   9.427
22955SOL    HW172659   6.298   7.548   9.434
22955SOL    HW272660   6.169   7.553   9.334
22956SOL     OW72661   6.125   7.512   9.822
22956SOL    HW172662   6.044   7.513   9.880
22956SOL    HW272663   6.128   7.595   9.767
22957SOL     OW72664   7.020   8.636   9.351
22957SOL    HW172665   7.052   8.560   9.408
22957SOL    HW272666   6.928   8.663   9.381
22958SOL     OW72667   6.521   7.684   9.790
22958SOL    HW172668   6.473   7.725   9.712
22958SOL    HW272669   6.620   7.682   9.771
22959SOL     OW72670   6.045   8.600  10.051
22959SOL    HW172671   5.974   8.573  10.116
22959SOL    HW272672   6.019   8.572   9.958
22960SOL     OW72673   6.452   7.902   9.952
22960SOL    HW172674   6.420   7.974   9.890
22960SOL    HW272675   6.476   7.821   9.899
22961SOL     OW72676   7.443   8.281   9.687
22961SOL    HW172677   7.485   8.217   9.751
22961SOL    HW272678   7.405   8.230   9.609
22962SOL     OW72679   6.074   8.833   9.484
22962SOL    HW172680   5.987   8.818   9.531
22962SOL    HW272681   6.057   8.859   9.389
22963SOL     OW72682   6.113   7.704   9.638
22963SOL    HW172683   6.140   7.645   9.563
22963SOL    HW272684   6.113   7.799   9.607
22964SOL     OW72685   6.291   8.498   9.678
22964SOL    HW172686   6.277   8.505   9.777
22964SOL    HW272687   6.375   8.447   9.660
22965SOL     OW72688   5.953   8.548   9.811
22965SOL    HW172689   5.946   8.631   9.755
22965SOL    HW272690   5.957   8.468   9.751
22966SOL     OW72691   6.838   8.796   9.698
22966SOL    HW172692   6.888   8.873   9.738
22966SOL    HW272693   6.743   8.798   9.730
22967SOL     OW72694   6.795   7.973   9.585
22967SOL    HW172695   6.808   7.889   9.639
22967SOL    HW272696   6.766   8.047   9.645
22968SOL     OW72697   5.893   7.511   9.928
22968SOL    HW172698   5.882   7.605   9.961
22968SOL    HW272699   5.888   7.448  10.005
22969SOL     OW72700   7.208   7.815   9.684
22969SOL    HW172701   7.210   7.739   9.748
22969SOL    HW272702   7.160   7.892   9.724
22970SOL     OW72703   7.126   7.722   9.435
22970SOL    HW172704   7.065   7.647   9.458
22970SOL    HW272705   7.148   7.774   9.518
22971SOL     OW72706   5.594   8.774   9.510
22971SOL    HW172707   5.501   8.795   9.479
22971SOL    HW272708   5.604   8.675   9.523
22972SOL     OW72709   6.401   8.020   9.635
22972SOL    HW172710   6.408   7.931   9.589
22972SOL    HW272711   6.307   8.054   9.627
22973SOL     OW72712   6.059   7.948   9.501
22973SOL    HW172713   6.120   8.028   9.505
22973SOL    HW272714   5.964   7.979   9.508
22974SOL     OW72715   7.312   7.583   9.833
22974SOL    HW172716   7.385   7.566   9.766
22974SOL    HW272717   7.281   7.496   9.871
22975SOL     OW72718   6.974   9.021   9.787
22975SOL    HW172719   7.041   9.033   9.713
22975SOL    HW272720   6.934   9.110   9.810
22976SOL     OW72721   6.258   9.064   9.464
22976SOL    HW172722   6.267   9.074   9.365
22976SOL    HW272723   6.218   8.975   9.485
22977SOL     OW72724   6.780   9.060   9.341
22977SOL    HW172725   6.786   8.967   9.378
22977SOL    HW272726   6.721   9.060   9.261
22978SOL     OW72727   6.502   8.358   9.601
22978SOL    HW172728   6.565   8.396   9.533
22978SOL    HW272729   6.542   8.275   9.640
22979SOL     OW72730   7.090   9.055   9.354
22979SOL    HW172731   6.998   9.092   9.361
22979SOL    HW272732   7.128   9.075   9.264
22980SOL     OW72733   6.176   8.935   9.801
22980SOL    HW172734   6.218   8.877   9.731
22980SOL    HW272735   6.132   9.014   9.757
22981SOL     OW72736   5.841   8.796   9.600
22981SOL    HW172737   5.745   8.797   9.573
22981SOL    HW272738   5.853   8.849   9.684
22982SOL     OW72739   5.658   7.614   9.628
22982SOL    HW172740   5.641   7.697   9.574
22982SOL    HW272741   5.748   7.577   9.606
22983SOL     OW72742   6.769   8.783   9.429
22983SOL    HW172743   6.670   8.772   9.431
22983SOL    HW272744   6.803   8.798   9.522
22984SOL     OW72745   6.811   7.773   9.759
22984SOL    HW172746   6.876   7.699   9.748
22984SOL    HW272747   6.831   7.823   9.843
22985SOL     OW72748   6.180   8.193   9.962
22985SOL    HW172749   6.230   8.278   9.943
22985SOL    HW272750   6.092   8.195   9.914
22986SOL     OW72751   6.445   8.822   9.326
22986SOL    HW172752   6.399   8.837   9.414
22986SOL    HW272753   6.489   8.907   9.296
22987SOL     OW72754   6.669   8.432   9.397
22987SOL    HW172755   6.646   8.485   9.315
22987SOL    HW272756   6.750   8.376   9.378
22988SOL     OW72757   5.665   8.688   9.963
22988SOL    HW172758   5.664   8.641  10.051
22988SOL    HW272759   5.747   8.660   9.912
22989SOL     OW72760   6.014   7.872   9.830
22989SOL    HW172761   6.044   7.800   9.768
22989SOL    HW272762   5.975   7.832   9.913
22990SOL     OW72763   6.356   8.778   9.611
22990SOL    HW172764   6.310   8.691   9.628
22990SOL    HW272765   6.447   8.775   9.652
22991SOL     OW72766   6.938   7.500   9.478
22991SOL    HW172767   6.973   7.459   9.394
22991SOL    HW272768   6.848   7.462   9.498
22992SOL     OW72769   5.625   8.525   9.610
22992SOL    HW172770   5.724   8.514   9.601
22992SOL    HW272771   5.585   8.439   9.642
22993SOL     OW72772   6.461   9.094   9.647
22993SOL    HW172773   6.384   9.059   9.593
22993SOL    HW272774   6.429   9.165   9.709
22994SOL     OW72775   5.811   9.585   0.996
22994SOL    HW172776   5.846   9.568   1.088
22994SOL    HW272777   5.723   9.540   0.984
22995SOL     OW72778   5.605   9.678   0.647
22995SOL    HW172779   5.523   9.721   0.686
22995SOL    HW272780   5.577   9.605   0.584
22996SOL     OW72781   7.341   9.917   0.231
22996SOL    HW172782   7.329   9.904   0.132
22996SOL    HW272783   7.311   9.836   0.280
22997SOL     OW72784   6.024   9.702   1.499
22997SOL    HW172785   6.106   9.646   1.508
22997SOL    HW272786   5.943   9.644   1.503
22998SOL     OW72787   7.189   9.757   0.737
22998SOL    HW172788   7.115   9.803   0.687
22998SOL    HW272789   7.240   9.825   0.790
22999SOL     OW72790   7.180   9.424   1.480
22999SOL    HW172791   7.162   9.491   1.408
22999SOL    HW272792   7.177   9.470   1.569
23000SOL     OW72793   5.708   9.953   0.563
23000SOL    HW172794   5.663   9.865   0.580
23000SOL    HW272795   5.707  10.007   0.647
23001SOL     OW72796   5.903   9.561   1.801
23001SOL    HW172797   5.974   9.632   1.807
23001SOL    HW272798   5.815   9.600   1.829
23002SOL     OW72799   6.867   9.655   0.944
23002SOL    HW172800   6.781   9.605   0.931
23002SOL    HW272801   6.929   9.601   1.000
23003SOL     OW72802   6.393   9.915   1.465
23003SOL    HW172803   6.346   9.912   1.554
23003SOL    HW272804   6.342   9.860   1.399
23004SOL     OW72805   6.980   9.779   1.674
23004SOL    HW172806   6.960   9.822   1.762
23004SOL    HW272807   7.058   9.717   1.683
23005SOL     OW72808   6.577   9.720   1.242
23005SOL    HW172809   6.500   9.754   1.296
23005SOL    HW272810   6.543   9.669   1.163
23006SOL     OW72811   6.627  10.011   0.429
23006SOL    HW172812   6.653  10.007   0.525
23006SOL    HW272813   6.542   9.960   0.415
23007SOL     OW72814   6.451   9.658   0.195
23007SOL    HW172815   6.510   9.721   0.146
23007SOL    HW272816   6.470   9.564   0.166
23008SOL     OW72817   6.136   9.506   0.885
23008SOL    HW172818   6.131   9.501   0.985
23008SOL    HW272819   6.138   9.602   0.856
23009SOL     OW72820   7.044  10.045   0.728
23009SOL    HW172821   7.039   9.980   0.803
23009SOL    HW272822   7.124  10.104   0.741
23010SOL     OW72823   5.788   9.595   1.498
23010SOL    HW172824   5.708   9.655   1.485
23010SOL    HW272825   5.778   9.546   1.584
23011SOL     OW72826   6.986   9.417   0.426
23011SOL    HW172827   6.962   9.380   0.336
23011SOL    HW272828   7.085   9.433   0.430
23012SOL     OW72829   6.200   9.432   0.117
23012SOL    HW172830   6.298   9.410   0.124
23012SOL    HW272831   6.169   9.415   0.024
23013SOL     OW72832   6.367   9.574   1.749
23013SOL    HW172833   6.434   9.513   1.792
23013SOL    HW272834   6.294   9.593   1.814
23014SOL     OW72835   6.937   9.900   1.433
23014SOL    HW172836   6.965   9.857   1.518
23014SOL    HW272837   6.962   9.996   1.434
23015SOL     OW72838   6.508   9.813   0.899
23015SOL    HW172839   6.483   9.804   0.803
23015SOL    HW272840   6.556   9.731   0.930
23016SOL     OW72841   6.125   9.374   0.512
23016SOL    HW172842   6.044   9.375   0.570
23016SOL    HW272843   6.128   9.457   0.457
23017SOL     OW72844   6.521   9.546   0.480
23017SOL    HW172845   6.473   9.587   0.402
23017SOL    HW272846   6.620   9.544   0.461
23018SOL     OW72847   6.662   9.993   1.464
23018SOL    HW172848   6.582   9.932   1.467
23018SOL    HW272849   6.743   9.940   1.440
23019SOL     OW72850   6.618   9.859   0.016
23019SOL    HW172851   6.577   9.941  -0.023
23019SOL    HW272852   6.682   9.885   0.089
23020SOL     OW72853   5.664   9.866   1.386
23020SOL    HW172854   5.756   9.865   1.345
23020SOL    HW272855   5.658   9.940   1.453
23021SOL     OW72856   6.147   9.532   1.147
23021SOL    HW172857   6.185   9.448   1.184
23021SOL    HW272858   6.059   9.551   1.191
23022SOL     OW72859   6.452   9.764   0.642
23022SOL    HW172860   6.420   9.836   0.580
23022SOL    HW272861   6.476   9.683   0.589
23023SOL     OW72862   6.603   9.349   0.753
23023SOL    HW172863   6.531   9.354   0.684
23023SOL    HW272864   6.579   9.280   0.822
23024SOL     OW72865   7.052   9.900   0.992
23024SOL    HW172866   7.022   9.805   0.999
23024SOL    HW272867   7.125   9.916   1.058
23025SOL     OW72868   6.113   9.566   0.328
23025SOL    HW172869   6.140   9.507   0.253
23025SOL    HW272870   6.113   9.661   0.297
23026SOL     OW72871   6.501   9.399   1.402
23026SOL    HW172872   6.526   9.379   1.307
23026SOL    HW272873   6.573   9.455   1.444
23027SOL     OW72874   6.860   9.696   1.262
23027SOL    HW172875   6.881   9.770   1.326
23027SOL    HW272876   6.771   9.713   1.219
23028SOL     OW72877   6.152   9.847   0.865
23028SOL    HW172878   6.164   9.913   0.791
23028SOL    HW272879   6.198   9.881   0.948
23029SOL     OW72880   7.168   9.949   0.472
23029SOL    HW172881   7.137  10.010   0.545
23029SOL    HW272882   7.218  10.001   0.403
23030SOL     OW72883   6.599   9.415   1.770
23030SOL    HW172884   6.605   9.500   1.718
23030SOL    HW272885   6.631   9.339   1.713
23031SOL     OW72886   6.090   9.360   1.740
23031SOL    HW172887   6.048   9.303   1.670
23031SOL    HW272888   6.024   9.429   1.772
23032SOL     OW72889   6.795   9.835   0.275
23032SOL    HW172890   6.808   9.751   0.329
23032SOL    HW272891   6.766   9.909   0.335
23033SOL     OW72892   5.893   9.523   1.231
23033SOL    HW172893   5.870   9.560   1.321
23033SOL    HW272894   5.863   9.428   1.225
23034SOL     OW72895   6.318   9.944   1.064
23034SOL    HW172896   6.377   9.918   0.988
23034SOL    HW272897   6.290  10.040   1.053
23035SOL     OW72898   5.893   9.373   0.618
23035SOL    HW172899   5.882   9.467   0.651
23035SOL    HW272900   5.888   9.310   0.695
23036SOL     OW72901   7.208   9.677   0.374
23036SOL    HW172902   7.210   9.601   0.438
23036SOL    HW272903   7.160   9.754   0.414
23037SOL     OW72904   5.905  10.120   0.949
23037SOL    HW172905   5.998  10.156   0.954
23037SOL    HW272906   5.899  10.035   1.001
23038SOL     OW72907   5.925   9.819   1.006
23038SOL    HW172908   5.873   9.736   0.989
23038SOL    HW272909   6.002   9.824   0.942
23039SOL     OW72910   6.724   9.690   1.678
23039SOL    HW172911   6.679   9.753   1.742
23039SOL    HW272912   6.817   9.721   1.661
23040SOL     OW72913   6.746   9.517   1.477
23040SOL    HW172914   6.746   9.581   1.554
23040SOL    HW272915   6.774   9.565   1.394
23041SOL     OW72916   5.626   9.854   1.114
23041SOL    HW172917   5.711   9.821   1.073
23041SOL    HW272918   5.639   9.869   1.212
23042SOL     OW72919   5.775   9.830   1.722
23042SOL    HW172920   5.834   9.790   1.652
23042SOL    HW272921   5.717   9.901   1.681
23043SOL     OW72922   6.401   9.882   0.325
23043SOL    HW172923   6.408   9.793   0.279
23043SOL    HW272924   6.307   9.916   0.317
23044SOL     OW72925   6.257   9.774   1.269
23044SOL    HW172926   6.223   9.685   1.239
23044SOL    HW272927   6.283   9.828   1.189
23045SOL     OW72928   7.312   9.445   0.523
23045SOL    HW172929   7.385   9.428   0.456
23045SOL    HW272930   7.281   9.358   0.561
23046SOL     OW72931   7.427   9.485   0.963
23046SOL    HW172932   7.466   9.400   0.927
23046SOL    HW272933   7.329   9.487   0.944
23047SOL     OW72934   5.849   9.636   0.720
23047SOL    HW172935   5.770   9.687   0.686
23047SOL    HW272936   5.840   9.621   0.818
23048SOL     OW72937   6.600   9.546   0.971
23048SOL    HW172938   6.592   9.510   0.878
23048SOL    HW272939   6.598   9.470   1.036
23049SOL     OW72940   6.258   9.513   1.489
23049SOL    HW172941   6.348   9.497   1.449
23049SOL    HW272942   6.266   9.518   1.588
23050SOL     OW72943   5.661   9.655   0.033
23050SOL    HW172944   5.569   9.627   0.004
23050SOL    HW272945   5.692   9.732  -0.023
23051SOL     OW72946   5.658   9.476   0.318
23051SOL    HW172947   5.641   9.559   0.264
23051SOL    HW272948   5.748   9.439   0.296
23052SOL     OW72949   6.302   9.875   1.708
23052SOL    HW172950   6.321   9.940   1.782
23052SOL    HW272951   6.362   9.795   1.717
23053SOL     OW72952   6.811   9.635   0.449
23053SOL    HW172953   6.876   9.561   0.438
23053SOL    HW272954   6.831   9.685   0.533
23054SOL     OW72955   6.669  10.294   0.087
23054SOL    HW172956   6.646  10.347   0.005
23054SOL    HW272957   6.750  10.238   0.068
23055SOL     OW72958   6.014   9.734   0.520
23055SOL    HW172959   6.044   9.662   0.458
23055SOL    HW272960   5.975   9.694   0.603
23056SOL     OW72961   5.903   9.857   1.280
23056SOL    HW172962   5.941   9.798   1.352
23056SOL    HW272963   5.943   9.831   1.192
23057SOL     OW72964   7.010   9.524   1.112
23057SOL    HW172965   7.062   9.459   1.167
23057SOL    HW272966   6.961   9.587   1.173
23058SOL     OW72967   6.587   9.344   1.154
23058SOL    HW172968   6.524   9.272   1.123
23058SOL    HW272969   6.680   9.308   1.154
23059SOL     OW72970   6.886   9.763   0.691
23059SOL    HW172971   6.827   9.843   0.695
23059SOL    HW272972   6.901   9.728   0.784
23060SOL     OW72973   7.179   9.531   0.882
23060SOL    HW172974   7.095   9.530   0.936
23060SOL    HW272975   7.181   9.614   0.826
23061SOL     OW72976   5.811   9.585   2.858
23061SOL    HW172977   5.846   9.568   2.950
23061SOL    HW272978   5.723   9.540   2.846
23062SOL     OW72979   5.605   9.678   2.509
23062SOL    HW172980   5.523   9.721   2.548
23062SOL    HW272981   5.577   9.605   2.446
23063SOL     OW72982   7.341   9.917   2.093
23063SOL    HW172983   7.329   9.904   1.994
23063SOL    HW272984   7.311   9.836   2.142
23064SOL     OW72985   6.024   9.702   3.361
23064SOL    HW172986   6.106   9.646   3.370
23064SOL    HW272987   5.943   9.644   3.365
23065SOL     OW72988   7.189   9.757   2.599
23065SOL    HW172989   7.115   9.803   2.549
23065SOL    HW272990   7.240   9.825   2.652
23066SOL     OW72991   7.180   9.424   3.342
23066SOL    HW172992   7.162   9.491   3.270
23066SOL    HW272993   7.177   9.470   3.431
23067SOL     OW72994   5.708   9.953   2.425
23067SOL    HW172995   5.663   9.865   2.442
23067SOL    HW272996   5.707  10.007   2.509
23068SOL     OW72997   6.395   9.314   2.364
23068SOL    HW172998   6.435   9.405   2.355
23068SOL    HW272999   6.295   9.322   2.370
23069SOL     OW73000   5.903   9.561   3.663
23069SOL    HW173001   5.974   9.632   3.669
23069SOL    HW273002   5.815   9.600   3.691
23070SOL     OW73003   6.867   9.655   2.806
23070SOL    HW173004   6.781   9.605   2.793
23070SOL    HW273005   6.929   9.601   2.862
23071SOL     OW73006   6.393   9.915   3.327
23071SOL    HW173007   6.346   9.912   3.416
23071SOL    HW273008   6.342   9.860   3.261
23072SOL     OW73009   6.980   9.779   3.536
23072SOL    HW173010   6.960   9.822   3.624
23072SOL    HW273011   7.058   9.717   3.545
23073SOL     OW73012   6.577   9.720   3.104
23073SOL    HW173013   6.500   9.754   3.158
23073SOL    HW273014   6.543   9.669   3.025
23074SOL     OW73015   6.627  10.011   2.291
23074SOL    HW173016   6.653  10.007   2.387
23074SOL    HW273017   6.542   9.960   2.277
23075SOL     OW73018   6.451   9.658   2.057
23075SOL    HW173019   6.510   9.721   2.008
23075SOL    HW273020   6.470   9.564   2.028
23076SOL     OW73021   7.305   9.895   3.693
23076SOL    HW173022   7.279   9.984   3.657
23076SOL    HW273023   7.303   9.827   3.620
23077SOL     OW73024   6.136   9.506   2.747
23077SOL    HW173025   6.131   9.501   2.847
23077SOL    HW273026   6.138   9.602   2.718
23078SOL     OW73027   5.788   9.595   3.360
23078SOL    HW173028   5.708   9.655   3.347
23078SOL    HW273029   5.778   9.546   3.446
23079SOL     OW73030   6.986   9.417   2.288
23079SOL    HW173031   6.962   9.380   2.198
23079SOL    HW273032   7.085   9.433   2.292
23080SOL     OW73033   7.133   9.532   3.591
23080SOL    HW173034   7.128   9.569   3.683
23080SOL    HW273035   7.061   9.463   3.579
23081SOL     OW73036   6.200   9.432   1.979
23081SOL    HW173037   6.298   9.410   1.986
23081SOL    HW273038   6.169   9.415   1.886
23082SOL     OW73039   6.367   9.574   3.611
23082SOL    HW173040   6.434   9.513   3.654
23082SOL    HW273041   6.294   9.593   3.676
23083SOL     OW73042   6.937   9.900   3.295
23083SOL    HW173043   6.965   9.857   3.380
23083SOL    HW273044   6.962   9.996   3.296
23084SOL     OW73045   6.508   9.813   2.761
23084SOL    HW173046   6.483   9.804   2.665
23084SOL    HW273047   6.556   9.731   2.792
23085SOL     OW73048   6.125   9.374   2.374
23085SOL    HW173049   6.044   9.375   2.432
23085SOL    HW273050   6.128   9.457   2.319
23086SOL     OW73051   5.883   9.345   2.033
23086SOL    HW173052   5.932   9.429   2.012
23086SOL    HW273053   5.945   9.280   2.078
23087SOL     OW73054   6.521   9.546   2.342
23087SOL    HW173055   6.473   9.587   2.264
23087SOL    HW273056   6.620   9.544   2.323
23088SOL     OW73057   6.662   9.993   3.326
23088SOL    HW173058   6.582   9.932   3.329
23088SOL    HW273059   6.743   9.940   3.302
23089SOL     OW73060   6.618   9.859   1.878
23089SOL    HW173061   6.577   9.941   1.839
23089SOL    HW273062   6.682   9.885   1.951
23090SOL     OW73063   5.664   9.866   3.248
23090SOL    HW173064   5.756   9.865   3.207
23090SOL    HW273065   5.658   9.940   3.315
23091SOL     OW73066   6.147   9.532   3.009
23091SOL    HW173067   6.185   9.448   3.046
23091SOL    HW273068   6.059   9.551   3.053
23092SOL     OW73069   6.452   9.764   2.504
23092SOL    HW173070   6.420   9.836   2.442
23092SOL    HW273071   6.476   9.683   2.451
23093SOL     OW73072   6.603   9.349   2.615
23093SOL    HW173073   6.531   9.354   2.546
23093SOL    HW273074   6.579   9.280   2.684
23094SOL     OW73075   7.052   9.900   2.854
23094SOL    HW173076   7.022   9.805   2.861
23094SOL    HW273077   7.125   9.916   2.920
23095SOL     OW73078   6.113   9.566   2.190
23095SOL    HW173079   6.140   9.507   2.115
23095SOL    HW273080   6.113   9.661   2.159
23096SOL     OW73081   6.501   9.399   3.264
23096SOL    HW173082   6.526   9.379   3.169
23096SOL    HW273083   6.573   9.455   3.306
23097SOL     OW73084   6.860   9.696   3.124
23097SOL    HW173085   6.881   9.770   3.188
23097SOL    HW273086   6.771   9.713   3.081
23098SOL     OW73087   6.152   9.847   2.727
23098SOL    HW173088   6.164   9.913   2.653
23098SOL    HW273089   6.198   9.881   2.810
23099SOL     OW73090   6.599   9.415   3.632
23099SOL    HW173091   6.605   9.500   3.580
23099SOL    HW273092   6.631   9.339   3.575
23100SOL     OW73093   6.090   9.360   3.602
23100SOL    HW173094   6.048   9.303   3.532
23100SOL    HW273095   6.024   9.429   3.634
23101SOL     OW73096   6.795   9.835   2.137
23101SOL    HW173097   6.808   9.751   2.191
23101SOL    HW273098   6.766   9.909   2.197
23102SOL     OW73099   5.893   9.523   3.093
23102SOL    HW173100   5.870   9.560   3.183
23102SOL    HW273101   5.863   9.428   3.087
23103SOL     OW73102   6.318   9.944   2.926
23103SOL    HW173103   6.377   9.918   2.850
23103SOL    HW273104   6.290  10.040   2.915
23104SOL     OW73105   5.893   9.373   2.480
23104SOL    HW173106   5.882   9.467   2.513
23104SOL    HW273107   5.888   9.310   2.557
23105SOL     OW73108   7.208   9.677   2.236
23105SOL    HW173109   7.210   9.601   2.300
23105SOL    HW273110   7.160   9.754   2.276
23106SOL     OW73111   7.126   9.584   1.987
23106SOL    HW173112   7.065   9.509   2.010
23106SOL    HW273113   7.148   9.636   2.070
23107SOL     OW73114   5.905  10.120   2.811
23107SOL    HW173115   5.998  10.156   2.816
23107SOL    HW273116   5.899  10.035   2.863
23108SOL     OW73117   5.925   9.819   2.868
23108SOL    HW173118   5.873   9.736   2.851
23108SOL    HW273119   6.002   9.824   2.804
23109SOL     OW73120   6.724   9.690   3.540
23109SOL    HW173121   6.679   9.753   3.604
23109SOL    HW273122   6.817   9.721   3.523
23110SOL     OW73123   6.746   9.517   3.339
23110SOL    HW173124   6.746   9.581   3.416
23110SOL    HW273125   6.774   9.565   3.256
23111SOL     OW73126   5.626   9.854   2.976
23111SOL    HW173127   5.711   9.821   2.935
23111SOL    HW273128   5.639   9.869   3.074
23112SOL     OW73129   5.775   9.830   3.584
23112SOL    HW173130   5.834   9.790   3.514
23112SOL    HW273131   5.717   9.901   3.543
23113SOL     OW73132   6.401   9.882   2.187
23113SOL    HW173133   6.408   9.793   2.141
23113SOL    HW273134   6.307   9.916   2.179
23114SOL     OW73135   7.243   9.914   3.068
23114SOL    HW173136   7.205   9.845   3.130
23114SOL    HW273137   7.325   9.878   3.024
23115SOL     OW73138   6.257   9.774   3.131
23115SOL    HW173139   6.223   9.685   3.101
23115SOL    HW273140   6.283   9.828   3.051
23116SOL     OW73141   7.427   9.485   2.825
23116SOL    HW173142   7.466   9.400   2.789
23116SOL    HW273143   7.329   9.487   2.806
23117SOL     OW73144   5.849   9.636   2.582
23117SOL    HW173145   5.770   9.687   2.548
23117SOL    HW273146   5.840   9.621   2.680
23118SOL     OW73147   6.600   9.546   2.833
23118SOL    HW173148   6.592   9.510   2.740
23118SOL    HW273149   6.598   9.470   2.898
23119SOL     OW73150   7.295   9.695   3.243
23119SOL    HW173151   7.368   9.764   3.247
23119SOL    HW273152   7.323   9.620   3.184
23120SOL     OW73153   6.258   9.513   3.351
23120SOL    HW173154   6.348   9.497   3.311
23120SOL    HW273155   6.266   9.518   3.450
23121SOL     OW73156   5.661   9.655   1.895
23121SOL    HW173157   5.569   9.627   1.866
23121SOL    HW273158   5.692   9.732   1.839
23122SOL     OW73159   5.658   9.476   2.180
23122SOL    HW173160   5.641   9.559   2.126
23122SOL    HW273161   5.748   9.439   2.158
23123SOL     OW73162   6.302   9.875   3.570
23123SOL    HW173163   6.321   9.940   3.644
23123SOL    HW273164   6.362   9.795   3.579
23124SOL     OW73165   6.811   9.635   2.311
23124SOL    HW173166   6.876   9.561   2.300
23124SOL    HW273167   6.831   9.685   2.395
23125SOL     OW73168   7.363   9.652   3.504
23125SOL    HW173169   7.346   9.683   3.410
23125SOL    HW273170   7.279   9.615   3.542
23126SOL     OW73171   6.669  10.294   1.949
23126SOL    HW173172   6.646  10.347   1.867
23126SOL    HW273173   6.750  10.238   1.930
23127SOL     OW73174   7.410   9.502   3.089
23127SOL    HW173175   7.406   9.412   3.133
23127SOL    HW273176   7.413   9.491   2.990
23128SOL     OW73177   6.014   9.734   2.382
23128SOL    HW173178   6.044   9.662   2.320
23128SOL    HW273179   5.975   9.694   2.465
23129SOL     OW73180   5.903   9.857   3.142
23129SOL    HW173181   5.941   9.798   3.214
23129SOL    HW273182   5.943   9.831   3.054
23130SOL     OW73183   7.010   9.524   2.974
23130SOL    HW173184   7.062   9.459   3.029
23130SOL    HW273185   6.961   9.587   3.035
23131SOL     OW73186   6.587   9.344   3.016
23131SOL    HW173187   6.524   9.272   2.985
23131SOL    HW273188   6.680   9.308   3.016
23132SOL     OW73189   6.938   9.362   2.030
23132SOL    HW173190   6.973   9.321   1.946
23132SOL    HW273191   6.848   9.324   2.050
23133SOL     OW73192   7.179   9.531   2.744
23133SOL    HW173193   7.095   9.530   2.798
23133SOL    HW273194   7.181   9.614   2.688
23134SOL     OW73195   7.341   9.917   3.955
23134SOL    HW173196   7.329   9.904   3.856
23134SOL    HW273197   7.311   9.836   4.004
23135SOL     OW73198   6.024   9.702   5.223
23135SOL    HW173199   6.106   9.646   5.232
23135SOL    HW273200   5.943   9.644   5.227
23136SOL     OW73201   7.189   9.757   4.461
23136SOL    HW173202   7.115   9.803   4.411
23136SOL    HW273203   7.240   9.825   4.514
23137SOL     OW73204   7.180   9.424   5.204
23137SOL    HW173205   7.162   9.491   5.132
23137SOL    HW273206   7.177   9.470   5.293
23138SOL     OW73207   5.708   9.953   4.287
23138SOL    HW173208   5.663   9.865   4.304
23138SOL    HW273209   5.707  10.007   4.371
23139SOL     OW73210   6.395   9.314   4.226
23139SOL    HW173211   6.435   9.405   4.217
23139SOL    HW273212   6.295   9.322   4.232
23140SOL     OW73213   5.903   9.561   5.525
23140SOL    HW173214   5.974   9.632   5.531
23140SOL    HW273215   5.815   9.600   5.553
23141SOL     OW73216   6.867   9.655   4.668
23141SOL    HW173217   6.781   9.605   4.655
23141SOL    HW273218   6.929   9.601   4.724
23142SOL     OW73219   6.393   9.915   5.189
23142SOL    HW173220   6.346   9.912   5.278
23142SOL    HW273221   6.342   9.860   5.123
23143SOL     OW73222   6.980   9.779   5.398
23143SOL    HW173223   6.960   9.822   5.486
23143SOL    HW273224   7.058   9.717   5.407
23144SOL     OW73225   6.577   9.720   4.966
23144SOL    HW173226   6.500   9.754   5.020
23144SOL    HW273227   6.543   9.669   4.887
23145SOL     OW73228   6.627  10.011   4.153
23145SOL    HW173229   6.653  10.007   4.249
23145SOL    HW273230   6.542   9.960   4.139
23146SOL     OW73231   6.451   9.658   3.919
23146SOL    HW173232   6.510   9.721   3.870
23146SOL    HW273233   6.470   9.564   3.890
23147SOL     OW73234   7.305   9.895   5.555
23147SOL    HW173235   7.279   9.984   5.519
23147SOL    HW273236   7.303   9.827   5.482
23148SOL     OW73237   6.136   9.506   4.609
23148SOL    HW173238   6.131   9.501   4.709
23148SOL    HW273239   6.138   9.602   4.580
23149SOL     OW73240   7.044  10.045   4.452
23149SOL    HW173241   7.039   9.980   4.527
23149SOL    HW273242   7.124  10.104   4.465
23150SOL     OW73243   5.788   9.595   5.222
23150SOL    HW173244   5.708   9.655   5.209
23150SOL    HW273245   5.778   9.546   5.308
23151SOL     OW73246   6.986   9.417   4.150
23151SOL    HW173247   6.962   9.380   4.060
23151SOL    HW273248   7.085   9.433   4.154
23152SOL     OW73249   7.133   9.532   5.453
23152SOL    HW173250   7.128   9.569   5.545
23152SOL    HW273251   7.061   9.463   5.441
23153SOL     OW73252   6.200   9.432   3.841
23153SOL    HW173253   6.298   9.410   3.848
23153SOL    HW273254   6.169   9.415   3.748
23154SOL     OW73255   6.367   9.574   5.473
23154SOL    HW173256   6.434   9.513   5.516
23154SOL    HW273257   6.294   9.593   5.538
23155SOL     OW73258   6.937   9.900   5.157
23155SOL    HW173259   6.965   9.857   5.242
23155SOL    HW273260   6.962   9.996   5.158
23156SOL     OW73261   6.508   9.813   4.623
23156SOL    HW173262   6.483   9.804   4.527
23156SOL    HW273263   6.556   9.731   4.654
23157SOL     OW73264   6.125   9.374   4.236
23157SOL    HW173265   6.044   9.375   4.294
23157SOL    HW273266   6.128   9.457   4.181
23158SOL     OW73267   5.883   9.345   3.895
23158SOL    HW173268   5.932   9.429   3.874
23158SOL    HW273269   5.945   9.280   3.940
23159SOL     OW73270   6.521   9.546   4.204
23159SOL    HW173271   6.473   9.587   4.126
23159SOL    HW273272   6.620   9.544   4.185
23160SOL     OW73273   6.662   9.993   5.188
23160SOL    HW173274   6.582   9.932   5.191
23160SOL    HW273275   6.743   9.940   5.164
23161SOL     OW73276   6.618   9.859   3.740
23161SOL    HW173277   6.577   9.941   3.701
23161SOL    HW273278   6.682   9.885   3.813
23162SOL     OW73279   6.147   9.532   4.871
23162SOL    HW173280   6.185   9.448   4.908
23162SOL    HW273281   6.059   9.551   4.915
23163SOL     OW73282   6.452   9.764   4.366
23163SOL    HW173283   6.420   9.836   4.304
23163SOL    HW273284   6.476   9.683   4.313
23164SOL     OW73285   6.603   9.349   4.477
23164SOL    HW173286   6.531   9.354   4.408
23164SOL    HW273287   6.579   9.280   4.546
23165SOL     OW73288   7.052   9.900   4.716
23165SOL    HW173289   7.022   9.805   4.723
23165SOL    HW273290   7.125   9.916   4.782
23166SOL     OW73291   6.113   9.566   4.052
23166SOL    HW173292   6.140   9.507   3.977
23166SOL    HW273293   6.113   9.661   4.021
23167SOL     OW73294   6.501   9.399   5.126
23167SOL    HW173295   6.526   9.379   5.031
23167SOL    HW273296   6.573   9.455   5.168
23168SOL     OW73297   6.860   9.696   4.986
23168SOL    HW173298   6.881   9.770   5.050
23168SOL    HW273299   6.771   9.713   4.943
23169SOL     OW73300   6.152   9.847   4.589
23169SOL    HW173301   6.164   9.913   4.515
23169SOL    HW273302   6.198   9.881   4.672
23170SOL     OW73303   7.168   9.949   4.196
23170SOL    HW173304   7.137  10.010   4.269
23170SOL    HW273305   7.218  10.001   4.127
23171SOL     OW73306   6.599   9.415   5.494
23171SOL    HW173307   6.605   9.500   5.442
23171SOL    HW273308   6.631   9.339   5.437
23172SOL     OW73309   6.090   9.360   5.464
23172SOL    HW173310   6.048   9.303   5.394
23172SOL    HW273311   6.024   9.429   5.496
23173SOL     OW73312   6.795   9.835   3.999
23173SOL    HW173313   6.808   9.751   4.053
23173SOL    HW273314   6.766   9.909   4.059
23174SOL     OW73315   6.318   9.944   4.788
23174SOL    HW173316   6.377   9.918   4.712
23174SOL    HW273317   6.290  10.040   4.777
23175SOL     OW73318   5.893   9.373   4.342
23175SOL    HW173319   5.882   9.467   4.375
23175SOL    HW273320   5.888   9.310   4.419
23176SOL     OW73321   7.208   9.677   4.098
23176SOL    HW173322   7.210   9.601   4.162
23176SOL    HW273323   7.160   9.754   4.138
23177SOL     OW73324   7.126   9.584   3.849
23177SOL    HW173325   7.065   9.509   3.872
23177SOL    HW273326   7.148   9.636   3.932
23178SOL     OW73327   5.905  10.120   4.673
23178SOL    HW173328   5.998  10.156   4.678
23178SOL    HW273329   5.899  10.035   4.725
23179SOL     OW73330   6.724   9.690   5.402
23179SOL    HW173331   6.679   9.753   5.466
23179SOL    HW273332   6.817   9.721   5.385
23180SOL     OW73333   6.746   9.517   5.201
23180SOL    HW173334   6.746   9.581   5.278
23180SOL    HW273335   6.774   9.565   5.118
23181SOL     OW73336   5.775   9.830   5.446
23181SOL    HW173337   5.834   9.790   5.376
23181SOL    HW273338   5.717   9.901   5.405
23182SOL     OW73339   6.401   9.882   4.049
23182SOL    HW173340   6.408   9.793   4.003
23182SOL    HW273341   6.307   9.916   4.041
23183SOL     OW73342   7.243   9.914   4.930
23183SOL    HW173343   7.205   9.845   4.992
23183SOL    HW273344   7.325   9.878   4.886
23184SOL     OW73345   6.257   9.774   4.993
23184SOL    HW173346   6.223   9.685   4.963
23184SOL    HW273347   6.283   9.828   4.913
23185SOL     OW73348   7.312   9.445   4.247
23185SOL    HW173349   7.385   9.428   4.180
23185SOL    HW273350   7.281   9.358   4.285
23186SOL     OW73351   7.427   9.485   4.687
23186SOL    HW173352   7.466   9.400   4.651
23186SOL    HW273353   7.329   9.487   4.668
23187SOL     OW73354   5.849   9.636   4.444
23187SOL    HW173355   5.770   9.687   4.410
23187SOL    HW273356   5.840   9.621   4.542
23188SOL     OW73357   6.600   9.546   4.695
23188SOL    HW173358   6.592   9.510   4.602
23188SOL    HW273359   6.598   9.470   4.760
23189SOL     OW73360   7.295   9.695   5.105
23189SOL    HW173361   7.368   9.764   5.109
23189SOL    HW273362   7.323   9.620   5.046
23190SOL     OW73363   6.258   9.513   5.213
23190SOL    HW173364   6.348   9.497   5.173
23190SOL    HW273365   6.266   9.518   5.312
23191SOL     OW73366   5.661   9.655   3.757
23191SOL    HW173367   5.569   9.627   3.728
23191SOL    HW273368   5.692   9.732   3.701
23192SOL     OW73369   5.658   9.476   4.042
23192SOL    HW173370   5.641   9.559   3.988
23192SOL    HW273371   5.748   9.439   4.020
23193SOL     OW73372   6.302   9.875   5.432
23193SOL    HW173373   6.321   9.940   5.506
23193SOL    HW273374   6.362   9.795   5.441
23194SOL     OW73375   6.811   9.635   4.173
23194SOL    HW173376   6.876   9.561   4.162
23194SOL    HW273377   6.831   9.685   4.257
23195SOL     OW73378   7.363   9.652   5.366
23195SOL    HW173379   7.346   9.683   5.272
23195SOL    HW273380   7.279   9.615   5.404
23196SOL     OW73381   6.669  10.294   3.811
23196SOL    HW173382   6.646  10.347   3.729
23196SOL    HW273383   6.750  10.238   3.792
23197SOL     OW73384   7.410   9.502   4.951
23197SOL    HW173385   7.406   9.412   4.995
23197SOL    HW273386   7.413   9.491   4.852
23198SOL     OW73387   6.014   9.734   4.244
23198SOL    HW173388   6.044   9.662   4.182
23198SOL    HW273389   5.975   9.694   4.327
23199SOL     OW73390   7.010   9.524   4.836
23199SOL    HW173391   7.062   9.459   4.891
23199SOL    HW273392   6.961   9.587   4.897
23200SOL     OW73393   6.587   9.344   4.878
23200SOL    HW173394   6.524   9.272   4.847
23200SOL    HW273395   6.680   9.308   4.878
23201SOL     OW73396   6.938   9.362   3.892
23201SOL    HW173397   6.973   9.321   3.808
23201SOL    HW273398   6.848   9.324   3.912
23202SOL     OW73399   6.886   9.763   4.415
23202SOL    HW173400   6.827   9.843   4.419
23202SOL    HW273401   6.901   9.728   4.508
23203SOL     OW73402   7.179   9.531   4.606
23203SOL    HW173403   7.095   9.530   4.660
23203SOL    HW273404   7.181   9.614   4.550
23204SOL     OW73405   5.811   9.585   6.582
23204SOL    HW173406   5.846   9.568   6.674
23204SOL    HW273407   5.723   9.540   6.570
23205SOL     OW73408   5.605   9.678   6.233
23205SOL    HW173409   5.523   9.721   6.272
23205SOL    HW273410   5.577   9.605   6.170
23206SOL     OW73411   7.341   9.917   5.817
23206SOL    HW173412   7.329   9.904   5.718
23206SOL    HW273413   7.311   9.836   5.866
23207SOL     OW73414   7.189   9.757   6.323
23207SOL    HW173415   7.115   9.803   6.273
23207SOL    HW273416   7.240   9.825   6.376
23208SOL     OW73417   7.180   9.424   7.066
23208SOL    HW173418   7.162   9.491   6.994
23208SOL    HW273419   7.177   9.470   7.155
23209SOL     OW73420   5.708   9.953   6.149
23209SOL    HW173421   5.663   9.865   6.166
23209SOL    HW273422   5.707  10.007   6.233
23210SOL     OW73423   6.395   9.314   6.088
23210SOL    HW173424   6.435   9.405   6.079
23210SOL    HW273425   6.295   9.322   6.094
23211SOL     OW73426   5.903   9.561   7.387
23211SOL    HW173427   5.974   9.632   7.393
23211SOL    HW273428   5.815   9.600   7.415
23212SOL     OW73429   6.867   9.655   6.530
23212SOL    HW173430   6.781   9.605   6.517
23212SOL    HW273431   6.929   9.601   6.586
23213SOL     OW73432   6.393   9.915   7.051
23213SOL    HW173433   6.346   9.912   7.140
23213SOL    HW273434   6.342   9.860   6.985
23214SOL     OW73435   6.577   9.720   6.828
23214SOL    HW173436   6.500   9.754   6.882
23214SOL    HW273437   6.543   9.669   6.749
23215SOL     OW73438   6.627  10.011   6.015
23215SOL    HW173439   6.653  10.007   6.111
23215SOL    HW273440   6.542   9.960   6.001
23216SOL     OW73441   6.451   9.658   5.781
23216SOL    HW173442   6.510   9.721   5.732
23216SOL    HW273443   6.470   9.564   5.752
23217SOL     OW73444   7.305   9.895   7.417
23217SOL    HW173445   7.279   9.984   7.381
23217SOL    HW273446   7.303   9.827   7.344
23218SOL     OW73447   6.136   9.506   6.471
23218SOL    HW173448   6.131   9.501   6.571
23218SOL    HW273449   6.138   9.602   6.442
23219SOL     OW73450   7.044  10.045   6.314
23219SOL    HW173451   7.039   9.980   6.389
23219SOL    HW273452   7.124  10.104   6.327
23220SOL     OW73453   5.788   9.595   7.084
23220SOL    HW173454   5.708   9.655   7.071
23220SOL    HW273455   5.778   9.546   7.170
23221SOL     OW73456   6.986   9.417   6.012
23221SOL    HW173457   6.962   9.380   5.922
23221SOL    HW273458   7.085   9.433   6.016
23222SOL     OW73459   6.200   9.432   5.703
23222SOL    HW173460   6.298   9.410   5.710
23222SOL    HW273461   6.169   9.415   5.610
23223SOL     OW73462   6.937   9.900   7.019
23223SOL    HW173463   6.965   9.857   7.104
23223SOL    HW273464   6.962   9.996   7.020
23224SOL     OW73465   6.508   9.813   6.485
23224SOL    HW173466   6.483   9.804   6.389
23224SOL    HW273467   6.556   9.731   6.516
23225SOL     OW73468   6.125   9.374   6.098
23225SOL    HW173469   6.044   9.375   6.156
23225SOL    HW273470   6.128   9.457   6.043
23226SOL     OW73471   5.883   9.345   5.757
23226SOL    HW173472   5.932   9.429   5.736
23226SOL    HW273473   5.945   9.280   5.802
23227SOL     OW73474   6.521   9.546   6.066
23227SOL    HW173475   6.473   9.587   5.988
23227SOL    HW273476   6.620   9.544   6.047
23228SOL     OW73477   6.662   9.993   7.050
23228SOL    HW173478   6.582   9.932   7.053
23228SOL    HW273479   6.743   9.940   7.026
23229SOL     OW73480   6.618   9.859   5.602
23229SOL    HW173481   6.577   9.941   5.563
23229SOL    HW273482   6.682   9.885   5.675
23230SOL     OW73483   6.147   9.532   6.733
23230SOL    HW173484   6.185   9.448   6.770
23230SOL    HW273485   6.059   9.551   6.777
23231SOL     OW73486   6.452   9.764   6.228
23231SOL    HW173487   6.420   9.836   6.166
23231SOL    HW273488   6.476   9.683   6.175
23232SOL     OW73489   6.603   9.349   6.339
23232SOL    HW173490   6.531   9.354   6.270
23232SOL    HW273491   6.579   9.280   6.408
23233SOL     OW73492   7.052   9.900   6.578
23233SOL    HW173493   7.022   9.805   6.585
23233SOL    HW273494   7.125   9.916   6.644
23234SOL     OW73495   6.113   9.566   5.914
23234SOL    HW173496   6.140   9.507   5.839
23234SOL    HW273497   6.113   9.661   5.883
23235SOL     OW73498   6.860   9.696   6.848
23235SOL    HW173499   6.881   9.770   6.912
23235SOL    HW273500   6.771   9.713   6.805
23236SOL     OW73501   6.152   9.847   6.451
23236SOL    HW173502   6.164   9.913   6.377
23236SOL    HW273503   6.198   9.881   6.534
23237SOL     OW73504   7.168   9.949   6.058
23237SOL    HW173505   7.137  10.010   6.131
23237SOL    HW273506   7.218  10.001   5.989
23238SOL     OW73507   6.090   9.360   7.326
23238SOL    HW173508   6.048   9.303   7.256
23238SOL    HW273509   6.024   9.429   7.358
23239SOL     OW73510   6.795   9.835   5.861
23239SOL    HW173511   6.808   9.751   5.915
23239SOL    HW273512   6.766   9.909   5.921
23240SOL     OW73513   5.893   9.523   6.817
23240SOL    HW173514   5.870   9.560   6.907
23240SOL    HW273515   5.863   9.428   6.811
23241SOL     OW73516   6.318   9.944   6.650
23241SOL    HW173517   6.377   9.918   6.574
23241SOL    HW273518   6.290  10.040   6.639
23242SOL     OW73519   5.893   9.373   6.204
23242SOL    HW173520   5.882   9.467   6.237
23242SOL    HW273521   5.888   9.310   6.281
23243SOL     OW73522   7.208   9.677   5.960
23243SOL    HW173523   7.210   9.601   6.024
23243SOL    HW273524   7.160   9.754   6.000
23244SOL     OW73525   7.126   9.584   5.711
23244SOL    HW173526   7.065   9.509   5.734
23244SOL    HW273527   7.148   9.636   5.794
23245SOL     OW73528   5.905  10.120   6.535
23245SOL    HW173529   5.998  10.156   6.540
23245SOL    HW273530   5.899  10.035   6.587
23246SOL     OW73531   5.925   9.819   6.592
23246SOL    HW173532   5.873   9.736   6.575
23246SOL    HW273533   6.002   9.824   6.528
23247SOL     OW73534   6.724   9.690   7.264
23247SOL    HW173535   6.679   9.753   7.328
23247SOL    HW273536   6.817   9.721   7.247
23248SOL     OW73537   6.746   9.517   7.063
23248SOL    HW173538   6.746   9.581   7.140
23248SOL    HW273539   6.774   9.565   6.980
23249SOL     OW73540   5.626   9.854   6.700
23249SOL    HW173541   5.711   9.821   6.659
23249SOL    HW273542   5.639   9.869   6.798
23250SOL     OW73543   5.775   9.830   7.308
23250SOL    HW173544   5.834   9.790   7.238
23250SOL    HW273545   5.717   9.901   7.267
23251SOL     OW73546   6.401   9.882   5.911
23251SOL    HW173547   6.408   9.793   5.865
23251SOL    HW273548   6.307   9.916   5.903
23252SOL     OW73549   7.243   9.914   6.792
23252SOL    HW173550   7.205   9.845   6.854
23252SOL    HW273551   7.325   9.878   6.748
23253SOL     OW73552   6.257   9.774   6.855
23253SOL    HW173553   6.223   9.685   6.825
23253SOL    HW273554   6.283   9.828   6.775
23254SOL     OW73555   7.312   9.445   6.109
23254SOL    HW173556   7.385   9.428   6.042
23254SOL    HW273557   7.281   9.358   6.147
23255SOL     OW73558   7.427   9.485   6.549
23255SOL    HW173559   7.466   9.400   6.513
23255SOL    HW273560   7.329   9.487   6.530
23256SOL     OW73561   5.849   9.636   6.306
23256SOL    HW173562   5.770   9.687   6.272
23256SOL    HW273563   5.840   9.621   6.404
23257SOL     OW73564   6.600   9.546   6.557
23257SOL    HW173565   6.592   9.510   6.464
23257SOL    HW273566   6.598   9.470   6.622
23258SOL     OW73567   7.295   9.695   6.967
23258SOL    HW173568   7.368   9.764   6.971
23258SOL    HW273569   7.323   9.620   6.908
23259SOL     OW73570   5.661   9.655   5.619
23259SOL    HW173571   5.569   9.627   5.590
23259SOL    HW273572   5.692   9.732   5.563
23260SOL     OW73573   5.658   9.476   5.904
23260SOL    HW173574   5.641   9.559   5.850
23260SOL    HW273575   5.748   9.439   5.882
23261SOL     OW73576   6.302   9.875   7.294
23261SOL    HW173577   6.321   9.940   7.368
23261SOL    HW273578   6.362   9.795   7.303
23262SOL     OW73579   6.811   9.635   6.035
23262SOL    HW173580   6.876   9.561   6.024
23262SOL    HW273581   6.831   9.685   6.119
23263SOL     OW73582   7.363   9.652   7.228
23263SOL    HW173583   7.346   9.683   7.134
23263SOL    HW273584   7.279   9.615   7.266
23264SOL     OW73585   6.669  10.294   5.673
23264SOL    HW173586   6.646  10.347   5.591
23264SOL    HW273587   6.750  10.238   5.654
23265SOL     OW73588   7.410   9.502   6.813
23265SOL    HW173589   7.406   9.412   6.857
23265SOL    HW273590   7.413   9.491   6.714
23266SOL     OW73591   6.014   9.734   6.106
23266SOL    HW173592   6.044   9.662   6.044
23266SOL    HW273593   5.975   9.694   6.189
23267SOL     OW73594   5.903   9.857   6.866
23267SOL    HW173595   5.941   9.798   6.938
23267SOL    HW273596   5.943   9.831   6.778
23268SOL     OW73597   7.010   9.524   6.698
23268SOL    HW173598   7.062   9.459   6.753
23268SOL    HW273599   6.961   9.587   6.759
23269SOL     OW73600   6.587   9.344   6.740
23269SOL    HW173601   6.524   9.272   6.709
23269SOL    HW273602   6.680   9.308   6.740
23270SOL     OW73603   6.938   9.362   5.754
23270SOL    HW173604   6.973   9.321   5.670
23270SOL    HW273605   6.848   9.324   5.774
23271SOL     OW73606   6.886   9.763   6.277
23271SOL    HW173607   6.827   9.843   6.281
23271SOL    HW273608   6.901   9.728   6.370
23272SOL     OW73609   7.179   9.531   6.468
23272SOL    HW173610   7.095   9.530   6.522
23272SOL    HW273611   7.181   9.614   6.412
23273SOL     OW73612   5.811   9.585   8.444
23273SOL    HW173613   5.846   9.568   8.536
23273SOL    HW273614   5.723   9.540   8.432
23274SOL     OW73615   5.605   9.678   8.095
23274SOL    HW173616   5.523   9.721   8.134
23274SOL    HW273617   5.577   9.605   8.032
23275SOL     OW73618   7.341   9.917   7.679
23275SOL    HW173619   7.329   9.904   7.580
23275SOL    HW273620   7.311   9.836   7.728
23276SOL     OW73621   6.024   9.702   8.947
23276SOL    HW173622   6.106   9.646   8.956
23276SOL    HW273623   5.943   9.644   8.951
23277SOL     OW73624   7.189   9.757   8.185
23277SOL    HW173625   7.115   9.803   8.135
23277SOL    HW273626   7.240   9.825   8.238
23278SOL     OW73627   7.180   9.424   8.928
23278SOL    HW173628   7.162   9.491   8.856
23278SOL    HW273629   7.177   9.470   9.017
23279SOL     OW73630   5.708   9.953   8.011
23279SOL    HW173631   5.663   9.865   8.028
23279SOL    HW273632   5.707  10.007   8.095
23280SOL     OW73633   6.395   9.314   7.950
23280SOL    HW173634   6.435   9.405   7.941
23280SOL    HW273635   6.295   9.322   7.956
23281SOL     OW73636   5.903   9.561   9.249
23281SOL    HW173637   5.974   9.632   9.255
23281SOL    HW273638   5.815   9.600   9.277
23282SOL     OW73639   6.867   9.655   8.392
23282SOL    HW173640   6.781   9.605   8.379
23282SOL    HW273641   6.929   9.601   8.448
23283SOL     OW73642   6.393   9.915   8.913
23283SOL    HW173643   6.346   9.912   9.002
23283SOL    HW273644   6.342   9.860   8.847
23284SOL     OW73645   6.577   9.720   8.690
23284SOL    HW173646   6.500   9.754   8.744
23284SOL    HW273647   6.543   9.669   8.611
23285SOL     OW73648   6.627  10.011   7.877
23285SOL    HW173649   6.653  10.007   7.973
23285SOL    HW273650   6.542   9.960   7.863
23286SOL     OW73651   6.451   9.658   7.643
23286SOL    HW173652   6.510   9.721   7.594
23286SOL    HW273653   6.470   9.564   7.614
23287SOL     OW73654   7.305   9.895   9.279
23287SOL    HW173655   7.279   9.984   9.243
23287SOL    HW273656   7.303   9.827   9.206
23288SOL     OW73657   6.136   9.506   8.333
23288SOL    HW173658   6.131   9.501   8.433
23288SOL    HW273659   6.138   9.602   8.304
23289SOL     OW73660   7.044  10.045   8.176
23289SOL    HW173661   7.039   9.980   8.251
23289SOL    HW273662   7.124  10.104   8.189
23290SOL     OW73663   5.788   9.595   8.946
23290SOL    HW173664   5.708   9.655   8.933
23290SOL    HW273665   5.778   9.546   9.032
23291SOL     OW73666   7.133   9.532   9.177
23291SOL    HW173667   7.128   9.569   9.269
23291SOL    HW273668   7.061   9.463   9.165
23292SOL     OW73669   6.200   9.432   7.565
23292SOL    HW173670   6.298   9.410   7.572
23292SOL    HW273671   6.169   9.415   7.472
23293SOL     OW73672   6.367   9.574   9.197
23293SOL    HW173673   6.434   9.513   9.240
23293SOL    HW273674   6.294   9.593   9.262
23294SOL     OW73675   6.508   9.813   8.347
23294SOL    HW173676   6.483   9.804   8.251
23294SOL    HW273677   6.556   9.731   8.378
23295SOL     OW73678   6.125   9.374   7.960
23295SOL    HW173679   6.044   9.375   8.018
23295SOL    HW273680   6.128   9.457   7.905
23296SOL     OW73681   5.883   9.345   7.619
23296SOL    HW173682   5.932   9.429   7.598
23296SOL    HW273683   5.945   9.280   7.664
23297SOL     OW73684   6.521   9.546   7.928
23297SOL    HW173685   6.473   9.587   7.850
23297SOL    HW273686   6.620   9.544   7.909
23298SOL     OW73687   6.618   9.859   7.464
23298SOL    HW173688   6.577   9.941   7.425
23298SOL    HW273689   6.682   9.885   7.537
23299SOL     OW73690   5.664   9.866   8.834
23299SOL    HW173691   5.756   9.865   8.793
23299SOL    HW273692   5.658   9.940   8.901
23300SOL     OW73693   6.147   9.532   8.595
23300SOL    HW173694   6.185   9.448   8.632
23300SOL    HW273695   6.059   9.551   8.639
23301SOL     OW73696   6.452   9.764   8.090
23301SOL    HW173697   6.420   9.836   8.028
23301SOL    HW273698   6.476   9.683   8.037
23302SOL     OW73699   6.603   9.349   8.201
23302SOL    HW173700   6.531   9.354   8.132
23302SOL    HW273701   6.579   9.280   8.270
23303SOL     OW73702   7.052   9.900   8.440
23303SOL    HW173703   7.022   9.805   8.447
23303SOL    HW273704   7.125   9.916   8.506
23304SOL     OW73705   6.113   9.566   7.776
23304SOL    HW173706   6.140   9.507   7.701
23304SOL    HW273707   6.113   9.661   7.745
23305SOL     OW73708   6.501   9.399   8.850
23305SOL    HW173709   6.526   9.379   8.755
23305SOL    HW273710   6.573   9.455   8.892
23306SOL     OW73711   6.860   9.696   8.710
23306SOL    HW173712   6.881   9.770   8.774
23306SOL    HW273713   6.771   9.713   8.667
23307SOL     OW73714   6.152   9.847   8.313
23307SOL    HW173715   6.164   9.913   8.239
23307SOL    HW273716   6.198   9.881   8.396
23308SOL     OW73717   7.168   9.949   7.920
23308SOL    HW173718   7.137  10.010   7.993
23308SOL    HW273719   7.218  10.001   7.851
23309SOL     OW73720   6.599   9.415   9.218
23309SOL    HW173721   6.605   9.500   9.166
23309SOL    HW273722   6.631   9.339   9.161
23310SOL     OW73723   6.090   9.360   9.188
23310SOL    HW173724   6.048   9.303   9.118
23310SOL    HW273725   6.024   9.429   9.220
23311SOL     OW73726   6.795   9.835   7.723
23311SOL    HW173727   6.808   9.751   7.777
23311SOL    HW273728   6.766   9.909   7.783
23312SOL     OW73729   5.893   9.523   8.679
23312SOL    HW173730   5.870   9.560   8.769
23312SOL    HW273731   5.863   9.428   8.673
23313SOL     OW73732   6.318   9.944   8.512
23313SOL    HW173733   6.377   9.918   8.436
23313SOL    HW273734   6.290  10.040   8.501
23314SOL     OW73735   5.893   9.373   8.066
23314SOL    HW173736   5.882   9.467   8.099
23314SOL    HW273737   5.888   9.310   8.143
23315SOL     OW73738   7.208   9.677   7.822
23315SOL    HW173739   7.210   9.601   7.886
23315SOL    HW273740   7.160   9.754   7.862
23316SOL     OW73741   5.905  10.120   8.397
23316SOL    HW173742   5.998  10.156   8.402
23316SOL    HW273743   5.899  10.035   8.449
23317SOL     OW73744   5.925   9.819   8.454
23317SOL    HW173745   5.873   9.736   8.437
23317SOL    HW273746   6.002   9.824   8.390
23318SOL     OW73747   6.746   9.517   8.925
23318SOL    HW173748   6.746   9.581   9.002
23318SOL    HW273749   6.774   9.565   8.842
23319SOL     OW73750   5.626   9.854   8.562
23319SOL    HW173751   5.711   9.821   8.521
23319SOL    HW273752   5.639   9.869   8.660
23320SOL     OW73753   5.775   9.830   9.170
23320SOL    HW173754   5.834   9.790   9.100
23320SOL    HW273755   5.717   9.901   9.129
23321SOL     OW73756   6.401   9.882   7.773
23321SOL    HW173757   6.408   9.793   7.727
23321SOL    HW273758   6.307   9.916   7.765
23322SOL     OW73759   7.243   9.914   8.654
23322SOL    HW173760   7.205   9.845   8.716
23322SOL    HW273761   7.325   9.878   8.610
23323SOL     OW73762   6.257   9.774   8.717
23323SOL    HW173763   6.223   9.685   8.687
23323SOL    HW273764   6.283   9.828   8.637
23324SOL     OW73765   7.312   9.445   7.971
23324SOL    HW173766   7.385   9.428   7.904
23324SOL    HW273767   7.281   9.358   8.009
23325SOL     OW73768   7.427   9.485   8.411
23325SOL    HW173769   7.466   9.400   8.375
23325SOL    HW273770   7.329   9.487   8.392
23326SOL     OW73771   5.849   9.636   8.168
23326SOL    HW173772   5.770   9.687   8.134
23326SOL    HW273773   5.840   9.621   8.266
23327SOL     OW73774   6.600   9.546   8.419
23327SOL    HW173775   6.592   9.510   8.326
23327SOL    HW273776   6.598   9.470   8.484
23328SOL     OW73777   7.295   9.695   8.829
23328SOL    HW173778   7.368   9.764   8.833
23328SOL    HW273779   7.323   9.620   8.770
23329SOL     OW73780   6.258   9.513   8.937
23329SOL    HW173781   6.348   9.497   8.897
23329SOL    HW273782   6.266   9.518   9.036
23330SOL     OW73783   5.661   9.655   7.481
23330SOL    HW173784   5.569   9.627   7.452
23330SOL    HW273785   5.692   9.732   7.425
23331SOL     OW73786   5.658   9.476   7.766
23331SOL    HW173787   5.641   9.559   7.712
23331SOL    HW273788   5.748   9.439   7.744
23332SOL     OW73789   6.302   9.875   9.156
23332SOL    HW173790   6.321   9.940   9.230
23332SOL    HW273791   6.362   9.795   9.165
23333SOL     OW73792   6.811   9.635   7.897
23333SOL    HW173793   6.876   9.561   7.886
23333SOL    HW273794   6.831   9.685   7.981
23334SOL     OW73795   7.363   9.652   9.090
23334SOL    HW173796   7.346   9.683   8.996
23334SOL    HW273797   7.279   9.615   9.128
23335SOL     OW73798   6.669  10.294   7.535
23335SOL    HW173799   6.646  10.347   7.453
23335SOL    HW273800   6.750  10.238   7.516
23336SOL     OW73801   7.410   9.502   8.675
23336SOL    HW173802   7.406   9.412   8.719
23336SOL    HW273803   7.413   9.491   8.576
23337SOL     OW73804   6.014   9.734   7.968
23337SOL    HW173805   6.044   9.662   7.906
23337SOL    HW273806   5.975   9.694   8.051
23338SOL     OW73807   5.903   9.857   8.728
23338SOL    HW173808   5.941   9.798   8.800
23338SOL    HW273809   5.943   9.831   8.640
23339SOL     OW73810   7.010   9.524   8.560
23339SOL    HW173811   7.062   9.459   8.615
23339SOL    HW273812   6.961   9.587   8.621
23340SOL     OW73813   6.587   9.344   8.602
23340SOL    HW173814   6.524   9.272   8.571
23340SOL    HW273815   6.680   9.308   8.602
23341SOL     OW73816   6.886   9.763   8.139
23341SOL    HW173817   6.827   9.843   8.143
23341SOL    HW273818   6.901   9.728   8.232
23342SOL     OW73819   7.179   9.531   8.330
23342SOL    HW173820   7.095   9.530   8.384
23342SOL    HW273821   7.181   9.614   8.274
23343SOL     OW73822   7.341   9.917   9.541
23343SOL    HW173823   7.329   9.904   9.442
23343SOL    HW273824   7.311   9.836   9.590
23344SOL     OW73825   5.708   9.953   9.873
23344SOL    HW173826   5.663   9.865   9.890
23344SOL    HW273827   5.707  10.007   9.957
23345SOL     OW73828   6.395   9.314   9.812
23345SOL    HW173829   6.435   9.405   9.803
23345SOL    HW273830   6.295   9.322   9.818
23346SOL     OW73831   6.627  10.011   9.739
23346SOL    HW173832   6.653  10.007   9.835
23346SOL    HW273833   6.542   9.960   9.725
23347SOL     OW73834   6.451   9.658   9.505
23347SOL    HW173835   6.510   9.721   9.456
23347SOL    HW273836   6.470   9.564   9.476
23348SOL     OW73837   6.200   9.432   9.427
23348SOL    HW173838   6.298   9.410   9.434
23348SOL    HW273839   6.169   9.415   9.334
23349SOL     OW73840   6.125   9.374   9.822
23349SOL    HW173841   6.044   9.375   9.880
23349SOL    HW273842   6.128   9.457   9.767
23350SOL     OW73843   5.883   9.345   9.481
23350SOL    HW173844   5.932   9.429   9.460
23350SOL    HW273845   5.945   9.280   9.526
23351SOL     OW73846   6.521   9.546   9.790
23351SOL    HW173847   6.473   9.587   9.712
23351SOL    HW273848   6.620   9.544   9.771
23352SOL     OW73849   6.452   9.764   9.952
23352SOL    HW173850   6.420   9.836   9.890
23352SOL    HW273851   6.476   9.683   9.899
23353SOL     OW73852   6.113   9.566   9.638
23353SOL    HW173853   6.140   9.507   9.563
23353SOL    HW273854   6.113   9.661   9.607
23354SOL     OW73855   7.168   9.949   9.782
23354SOL    HW173856   7.137  10.010   9.855
23354SOL    HW273857   7.218  10.001   9.713
23355SOL     OW73858   6.795   9.835   9.585
23355SOL    HW173859   6.808   9.751   9.639
23355SOL    HW273860   6.766   9.909   9.645
23356SOL     OW73861   5.893   9.373   9.928
23356SOL    HW173862   5.882   9.467   9.961
23356SOL    HW273863   5.888   9.310  10.005
23357SOL     OW73864   7.208   9.677   9.684
23357SOL    HW173865   7.210   9.601   9.748
23357SOL    HW273866   7.160   9.754   9.724
23358SOL     OW73867   7.126   9.584   9.435
23358SOL    HW173868   7.065   9.509   9.458
23358SOL    HW273869   7.148   9.636   9.518
23359SOL     OW73870   5.925   9.819  10.316
23359SOL    HW173871   5.873   9.736  10.299
23359SOL    HW273872   6.002   9.824  10.252
23360SOL     OW73873   6.401   9.882   9.635
23360SOL    HW173874   6.408   9.793   9.589
23360SOL    HW273875   6.307   9.916   9.627
23361SOL     OW73876   7.312   9.445   9.833
23361SOL    HW173877   7.385   9.428   9.766
23361SOL    HW273878   7.281   9.358   9.871
23362SOL     OW73879   5.661   9.655   9.343
23362SOL    HW173880   5.569   9.627   9.314
23362SOL    HW273881   5.692   9.732   9.287
23363SOL     OW73882   5.658   9.476   9.628
23363SOL    HW173883   5.641   9.559   9.574
23363SOL    HW273884   5.748   9.439   9.606
23364SOL     OW73885   6.669  10.294   9.397
23364SOL    HW173886   6.646  10.347   9.315
23364SOL    HW273887   6.750  10.238   9.378
23365SOL     OW73888   6.014   9.734   9.830
23365SOL    HW173889   6.044   9.662   9.768
23365SOL    HW273890   5.975   9.694   9.913
23366SOL     OW73891   6.938   9.362   9.478
23366SOL    HW173892   6.973   9.321   9.394
23366SOL    HW273893   6.848   9.324   9.498
23367SOL     OW73894   7.678   0.628   0.113
23367SOL    HW173895   7.585   0.626   0.150
23367SOL    HW273896   7.679   0.589   0.021
23368SOL     OW73897   7.673   0.275   0.996
23368SOL    HW173898   7.708   0.258   1.088
23368SOL    HW273899   7.585   0.230   0.984
23369SOL     OW73900   7.467   0.368   0.647
23369SOL    HW173901   7.385   0.411   0.686
23369SOL    HW273902   7.439   0.295   0.584
23370SOL     OW73903   8.017   1.275   1.165
23370SOL    HW173904   7.924   1.268   1.128
23370SOL    HW273905   8.028   1.364   1.209
23371SOL     OW73906   9.003   1.511   0.703
23371SOL    HW173907   8.946   1.495   0.784
23371SOL    HW273908   8.944   1.521   0.623
23372SOL     OW73909   8.583   0.703   0.717
23372SOL    HW173910   8.640   0.781   0.692
23372SOL    HW273911   8.523   0.729   0.793
23373SOL     OW73912   9.203   0.607   0.231
23373SOL    HW173913   9.191   0.594   0.132
23373SOL    HW273914   9.173   0.526   0.280
23374SOL     OW73915   8.216   1.144   1.023
23374SOL    HW173916   8.138   1.161   1.083
23374SOL    HW273917   8.250   1.231   0.987
23375SOL     OW73918   8.298   0.798   1.823
23375SOL    HW173919   8.294   0.874   1.888
23375SOL    HW273920   8.320   0.834   1.732
23376SOL     OW73921   8.133   1.012   0.665
23376SOL    HW173922   8.202   0.996   0.735
23376SOL    HW273923   8.060   1.069   0.703
23377SOL     OW73924   8.134   1.161   1.803
23377SOL    HW173925   8.194   1.240   1.817
23377SOL    HW273926   8.048   1.192   1.762
23378SOL     OW73927   7.783   1.435   1.061
23378SOL    HW173928   7.705   1.404   1.008
23378SOL    HW273929   7.841   1.493   1.004
23379SOL     OW73930   8.908   1.505   1.339
23379SOL    HW173931   8.932   1.599   1.365
23379SOL    HW273932   8.892   1.451   1.421
23380SOL     OW73933   7.886   0.392   1.499
23380SOL    HW173934   7.968   0.336   1.508
23380SOL    HW273935   7.805   0.334   1.503
23381SOL     OW73936   9.051   0.447   0.737
23381SOL    HW173937   8.977   0.493   0.687
23381SOL    HW273938   9.102   0.515   0.790
23382SOL     OW73939   7.679   1.713   0.483
23382SOL    HW173940   7.713   1.790   0.537
23382SOL    HW273941   7.723   1.713   0.393
23383SOL     OW73942   8.575   1.341   1.690
23383SOL    HW173943   8.622   1.341   1.778
23383SOL    HW273944   8.527   1.254   1.679
23384SOL     OW73945   7.678   1.434   0.538
23384SOL    HW173946   7.652   1.530   0.538
23384SOL    HW273947   7.607   1.380   0.583
23385SOL     OW73948   7.688   1.091   0.886
23385SOL    HW173949   7.702   1.007   0.938
23385SOL    HW273950   7.633   1.155   0.941
23386SOL     OW73951   8.068   1.786   1.439
23386SOL    HW173952   7.976   1.769   1.474
23386SOL    HW273953   8.096   1.878   1.465
23387SOL     OW73954   8.054   0.964   0.123
23387SOL    HW173955   8.061   1.048   0.069
23387SOL    HW273956   8.100   0.977   0.211
23388SOL     OW73957   9.042   0.114   1.480
23388SOL    HW173958   9.024   0.181   1.408
23388SOL    HW273959   9.039   0.160   1.569
23389SOL     OW73960   7.570   0.643   0.563
23389SOL    HW173961   7.525   0.555   0.580
23389SOL    HW273962   7.569   0.697   0.647
23390SOL     OW73963   7.475   1.596   0.117
23390SOL    HW173964   7.456   1.500   0.138
23390SOL    HW273965   7.442   1.654   0.192
23391SOL     OW73966   9.137   0.922   0.612
23391SOL    HW173967   9.232   0.893   0.620
23391SOL    HW273968   9.129   0.987   0.537
23392SOL     OW73969   7.561   0.737   1.597
23392SOL    HW173970   7.649   0.724   1.642
23392SOL    HW273971   7.548   0.834   1.575
23393SOL     OW73972   8.061   1.365   0.726
23393SOL    HW173973   8.012   1.278   0.735
23393SOL    HW273974   8.038   1.408   0.639
23394SOL     OW73975   8.741   1.228   1.423
23394SOL    HW173976   8.778   1.155   1.365
23394SOL    HW273977   8.793   1.233   1.508
23395SOL     OW73978   7.645   0.976   1.264
23395SOL    HW173979   7.734   0.931   1.250
23395SOL    HW273980   7.572   0.911   1.245
23396SOL     OW73981   8.635   1.792   1.616
23396SOL    HW173982   8.659   1.852   1.540
23396SOL    HW273983   8.642   1.697   1.586
23397SOL     OW73984   7.765   0.251   1.801
23397SOL    HW173985   7.836   0.322   1.807
23397SOL    HW273986   7.677   0.290   1.829
23398SOL     OW73987   8.914   1.417   0.953
23398SOL    HW173988   8.855   1.423   1.033
23398SOL    HW273989   8.899   1.329   0.907
23399SOL     OW73990   9.115   1.714   0.572
23399SOL    HW173991   9.074   1.691   0.484
23399SOL    HW273992   9.097   1.640   0.637
23400SOL     OW73993   8.046   0.729   0.270
23400SOL    HW173994   8.070   0.798   0.202
23400SOL    HW273995   7.968   0.762   0.324
23401SOL     OW73996   8.729   0.345   0.944
23401SOL    HW173997   8.643   0.295   0.931
23401SOL    HW273998   8.791   0.291   1.000
23402SOL     OW73999   9.024   1.662   0.307
23402SOL    HW174000   9.113   1.708   0.310
23402SOL    HW274001   9.003   1.638   0.212
23403SOL     OW74002   8.842   0.469   1.674
23403SOL    HW174003   8.822   0.512   1.762
23403SOL    HW274004   8.920   0.407   1.683
23404SOL     OW74005   7.524   0.811   0.789
23404SOL    HW174006   7.623   0.799   0.798
23404SOL    HW274007   7.500   0.906   0.810
23405SOL     OW74008   7.578   1.821   1.571
23405SOL    HW174009   7.568   1.806   1.670
23405SOL    HW274010   7.492   1.857   1.535
23406SOL     OW74011   8.313   0.348   0.195
23406SOL    HW174012   8.372   0.411   0.146
23406SOL    HW274013   8.332   0.254   0.166
23407SOL     OW74014   9.167   0.585   1.831
23407SOL    HW174015   9.141   0.674   1.795
23407SOL    HW274016   9.165   0.517   1.758
23408SOL     OW74017   7.998   0.196   0.885
23408SOL    HW174018   7.993   0.191   0.985
23408SOL    HW274019   8.000   0.292   0.856
23409SOL     OW74020   7.799   1.801   0.853
23409SOL    HW174021   7.849   1.715   0.859
23409SOL    HW274022   7.864   1.878   0.850
23410SOL     OW74023   9.243   1.066   0.873
23410SOL    HW174024   9.181   1.051   0.797
23410SOL    HW274025   9.191   1.077   0.958
23411SOL     OW74026   8.675   1.550   1.506
23411SOL    HW174027   8.681   1.473   1.570
23411SOL    HW274028   8.623   1.524   1.426
23412SOL     OW74029   8.906   0.735   0.728
23412SOL    HW174030   8.901   0.670   0.803
23412SOL    HW274031   8.986   0.794   0.741
23413SOL     OW74032   7.909   1.266   1.727
23413SOL    HW174033   7.859   1.267   1.641
23413SOL    HW274034   7.846   1.248   1.803
23414SOL     OW74035   8.559   1.776   0.237
23414SOL    HW174036   8.499   1.714   0.287
23414SOL    HW274037   8.590   1.732   0.152
23415SOL     OW74038   7.650   0.285   1.498
23415SOL    HW174039   7.570   0.345   1.485
23415SOL    HW274040   7.640   0.236   1.584
23416SOL     OW74041   9.080   1.377   0.081
23416SOL    HW174042   9.048   1.471   0.071
23416SOL    HW274043   9.004   1.314   0.069
23417SOL     OW74044   7.912   1.743   0.323
23417SOL    HW174045   7.945   1.782   0.409
23417SOL    HW274046   7.988   1.736   0.258
23418SOL     OW74047   8.848   0.107   0.426
23418SOL    HW174048   8.824   0.070   0.336
23418SOL    HW274049   8.947   0.123   0.430
23419SOL     OW74050   7.697   1.785   1.241
23419SOL    HW174051   7.754   1.720   1.291
23419SOL    HW274052   7.681   1.752   1.148
23420SOL     OW74053   7.830   0.700   0.480
23420SOL    HW174054   7.875   0.610   0.477
23420SOL    HW274055   7.736   0.689   0.513
23421SOL     OW74056   8.995   0.222   1.729
23421SOL    HW174057   8.990   0.259   1.821
23421SOL    HW274058   8.923   0.153   1.717
23422SOL     OW74059   8.229   0.264   1.749
23422SOL    HW174060   8.296   0.203   1.792
23422SOL    HW274061   8.156   0.283   1.814
23423SOL     OW74062   8.336   1.514   1.195
23423SOL    HW174063   8.313   1.489   1.101
23423SOL    HW274064   8.397   1.445   1.234
23424SOL     OW74065   8.799   0.590   1.433
23424SOL    HW174066   8.827   0.547   1.518
23424SOL    HW274067   8.824   0.686   1.434
23425SOL     OW74068   8.251   1.402   0.924
23425SOL    HW174069   8.341   1.416   0.882
23425SOL    HW274070   8.180   1.404   0.853
23426SOL     OW74071   7.987   0.064   0.512
23426SOL    HW174072   7.906   0.065   0.570
23426SOL    HW274073   7.990   0.147   0.457
23427SOL     OW74074   7.745   0.035   0.171
23427SOL    HW174075   7.794   0.119   0.150
23427SOL    HW274076   7.807  -0.030   0.216
23428SOL     OW74077   7.907   1.152   0.741
23428SOL    HW174078   7.836   1.125   0.806
23428SOL    HW274079   7.881   1.124   0.648
23429SOL     OW74080   8.719   1.797   0.591
23429SOL    HW174081   8.763   1.861   0.527
23429SOL    HW274082   8.669   1.849   0.661
23430SOL     OW74083   8.480   0.549   0.016
23430SOL    HW174084   8.439   0.631  -0.023
23430SOL    HW274085   8.544   0.575   0.089
23431SOL     OW74086   7.526   0.556   1.386
23431SOL    HW174087   7.618   0.555   1.345
23431SOL    HW274088   7.520   0.630   1.453
23432SOL     OW74089   8.009   0.222   1.147
23432SOL    HW174090   8.047   0.138   1.184
23432SOL    HW274091   7.921   0.241   1.191
23433SOL     OW74092   8.465   0.039   0.753
23433SOL    HW174093   8.393   0.044   0.684
23433SOL    HW274094   8.441  -0.030   0.822
23434SOL     OW74095   8.877   1.173   0.867
23434SOL    HW174096   8.822   1.089   0.860
23434SOL    HW274097   8.903   1.202   0.775
23435SOL     OW74098   8.914   0.590   0.992
23435SOL    HW174099   8.884   0.495   0.999
23435SOL    HW274100   8.987   0.606   1.058
23436SOL     OW74101   9.305   0.833   0.377
23436SOL    HW174102   9.347   0.769   0.441
23436SOL    HW274103   9.267   0.782   0.299
23437SOL     OW74104   9.112   1.280   0.657
23437SOL    HW174105   9.211   1.288   0.671
23437SOL    HW274106   9.067   1.364   0.688
23438SOL     OW74107   8.838   0.575   0.078
23438SOL    HW174108   8.784   0.554   0.159
23438SOL    HW274109   8.929   0.534   0.087
23439SOL     OW74110   7.975   0.256   0.328
23439SOL    HW174111   8.002   0.197   0.253
23439SOL    HW274112   7.975   0.351   0.297
23440SOL     OW74113   9.202   1.223   1.588
23440SOL    HW174114   9.293   1.184   1.575
23440SOL    HW274115   9.210   1.319   1.612
23441SOL     OW74116   8.512   1.347   1.340
23441SOL    HW174117   8.432   1.324   1.395
23441SOL    HW274118   8.595   1.321   1.389
23442SOL     OW74119   9.040   1.629   1.625
23442SOL    HW174120   9.067   1.663   1.535
23442SOL    HW274121   9.119   1.591   1.671
23443SOL     OW74122   8.559   1.195   1.100
23443SOL    HW174123   8.519   1.239   1.181
23443SOL    HW274124   8.518   1.232   1.017
23444SOL     OW74125   9.086   1.099   1.079
23444SOL    HW174126   9.091   1.180   1.138
23444SOL    HW274127   9.000   1.101   1.028
23445SOL     OW74128   8.363   0.089   1.402
23445SOL    HW174129   8.388   0.069   1.307
23445SOL    HW274130   8.435   0.145   1.444
23446SOL     OW74131   8.428   1.116   1.719
23446SOL    HW174132   8.329   1.122   1.729
23446SOL    HW274133   8.451   1.036   1.663
23447SOL     OW74134   8.153   1.050   0.368
23447SOL    HW174135   8.139   1.057   0.467
23447SOL    HW274136   8.237   0.999   0.350
23448SOL     OW74137   7.858   0.813   1.251
23448SOL    HW174138   7.944   0.825   1.301
23448SOL    HW274139   7.816   0.726   1.278
23449SOL     OW74140   8.722   0.386   1.262
23449SOL    HW174141   8.743   0.460   1.326
23449SOL    HW274142   8.633   0.403   1.219
23450SOL     OW74143   7.512   1.564   1.331
23450SOL    HW174144   7.466   1.646   1.297
23450SOL    HW274145   7.610   1.583   1.340
23451SOL     OW74146   7.815   1.100   0.501
23451SOL    HW174147   7.808   1.183   0.445
23451SOL    HW274148   7.819   1.020   0.441
23452SOL     OW74149   8.014   0.537   0.865
23452SOL    HW174150   8.026   0.603   0.791
23452SOL    HW274151   8.060   0.571   0.948
23453SOL     OW74152   8.720   1.445   1.142
23453SOL    HW174153   8.767   1.458   1.229
23453SOL    HW274154   8.654   1.371   1.151
23454SOL     OW74155   9.030   0.639   0.472
23454SOL    HW174156   8.999   0.700   0.545
23454SOL    HW274157   9.080   0.691   0.403
23455SOL     OW74158   7.802   1.510   1.329
23455SOL    HW174159   7.781   1.466   1.242
23455SOL    HW274160   7.899   1.536   1.332
23456SOL     OW74161   7.850   0.751   1.598
23456SOL    HW174162   7.918   0.806   1.551
23456SOL    HW274163   7.890   0.663   1.625
23457SOL     OW74164   9.035   0.779   1.670
23457SOL    HW174165   8.943   0.817   1.665
23457SOL    HW274166   9.095   0.826   1.605
23458SOL     OW74167   8.461   0.105   1.770
23458SOL    HW174168   8.467   0.190   1.718
23458SOL    HW274169   8.493   0.029   1.713
23459SOL     OW74170   7.952   0.050   1.740
23459SOL    HW174171   7.910  -0.007   1.670
23459SOL    HW274172   7.886   0.119   1.772
23460SOL     OW74173   8.021   0.870   1.029
23460SOL    HW174174   8.065   0.959   1.020
23460SOL    HW274175   7.958   0.870   1.106
23461SOL     OW74176   8.808   0.862   1.045
23461SOL    HW174177   8.733   0.862   0.979
23461SOL    HW274178   8.845   0.770   1.054
23462SOL     OW74179   7.755   0.213   1.231
23462SOL    HW174180   7.732   0.250   1.321
23462SOL    HW274181   7.725   0.118   1.225
23463SOL     OW74182   7.485   1.310   1.282
23463SOL    HW174183   7.538   1.261   1.350
23463SOL    HW274184   7.507   1.408   1.287
23464SOL     OW74185   8.180   0.634   1.064
23464SOL    HW174186   8.239   0.608   0.988
23464SOL    HW274187   8.152   0.730   1.053
23465SOL     OW74188   7.755   0.063   0.618
23465SOL    HW174189   7.744   0.157   0.651
23465SOL    HW274190   7.750   0.000   0.695
23466SOL     OW74191   9.070   0.367   0.374
23466SOL    HW174192   9.072   0.291   0.438
23466SOL    HW274193   9.022   0.444   0.414
23467SOL     OW74194   8.471   0.766   0.966
23467SOL    HW174195   8.486   0.787   1.062
23467SOL    HW274196   8.441   0.671   0.957
23468SOL     OW74197   8.428   1.573   1.700
23468SOL    HW174198   8.408   1.617   1.612
23468SOL    HW274199   8.467   1.482   1.684
23469SOL     OW74200   9.307   1.518   1.605
23469SOL    HW174201   9.321   1.545   1.510
23469SOL    HW274202   9.390   1.540   1.658
23470SOL     OW74203   7.798   0.898   1.804
23470SOL    HW174204   7.874   0.942   1.852
23470SOL    HW274205   7.833   0.851   1.722
23471SOL     OW74206   8.988   0.274   0.125
23471SOL    HW174207   8.927   0.199   0.148
23471SOL    HW274208   9.010   0.326   0.208
23472SOL     OW74209   8.516   1.333   0.849
23472SOL    HW174210   8.523   1.249   0.794
23472SOL    HW274211   8.578   1.402   0.813
23473SOL     OW74212   7.767   0.810   0.949
23473SOL    HW174213   7.860   0.846   0.954
23473SOL    HW274214   7.761   0.725   1.001
23474SOL     OW74215   7.787   0.509   1.006
23474SOL    HW174216   7.735   0.426   0.989
23474SOL    HW274217   7.864   0.514   0.942
23475SOL     OW74218   8.586   0.380   1.678
23475SOL    HW174219   8.541   0.443   1.742
23475SOL    HW274220   8.679   0.411   1.661
23476SOL     OW74221   8.608   0.207   1.477
23476SOL    HW174222   8.608   0.271   1.554
23476SOL    HW274223   8.636   0.255   1.394
23477SOL     OW74224   7.536   1.801   0.927
23477SOL    HW174225   7.494   1.715   0.900
23477SOL    HW274226   7.630   1.804   0.893
23478SOL     OW74227   7.952   1.568   0.910
23478SOL    HW174228   8.018   1.642   0.919
23478SOL    HW274229   7.996   1.489   0.868
23479SOL     OW74230   7.488   0.544   1.114
23479SOL    HW174231   7.573   0.511   1.073
23479SOL    HW274232   7.501   0.559   1.212
23480SOL     OW74233   8.817   0.950   1.660
23480SOL    HW174234   8.856   1.039   1.680
23480SOL    HW274235   8.827   0.930   1.563
23481SOL     OW74236   8.263   0.572   0.325
23481SOL    HW174237   8.270   0.483   0.279
23481SOL    HW274238   8.169   0.606   0.317
23482SOL     OW74239   9.105   0.604   1.206
23482SOL    HW174240   9.067   0.535   1.268
23482SOL    HW274241   9.187   0.568   1.162
23483SOL     OW74242   7.700   1.564   1.744
23483SOL    HW174243   7.670   1.621   1.820
23483SOL    HW274244   7.693   1.467   1.770
23484SOL     OW74245   8.378   1.678   1.465
23484SOL    HW174246   8.354   1.660   1.370
23484SOL    HW274247   8.408   1.772   1.475
23485SOL     OW74248   7.921   0.500   0.191
23485SOL    HW174249   7.982   0.580   0.195
23485SOL    HW274250   7.826   0.531   0.198
23486SOL     OW74251   7.607   1.137   1.466
23486SOL    HW174252   7.629   1.076   1.542
23486SOL    HW274253   7.617   1.088   1.380
23487SOL     OW74254   8.795   1.059   1.234
23487SOL    HW174255   8.819   0.996   1.160
23487SOL    HW274256   8.705   1.099   1.216
23488SOL     OW74257   9.207   1.747   1.154
23488SOL    HW174258   9.268   1.777   1.081
23488SOL    HW274259   9.169   1.658   1.132
23489SOL     OW74260   8.700   1.731   1.128
23489SOL    HW174261   8.784   1.736   1.074
23489SOL    HW274262   8.677   1.635   1.146
23490SOL     OW74263   7.531   1.258   1.022
23490SOL    HW174264   7.526   1.257   1.122
23490SOL    HW274265   7.448   1.217   0.984
23491SOL     OW74266   8.136   1.662   1.716
23491SOL    HW174267   8.080   1.743   1.725
23491SOL    HW274268   8.188   1.666   1.630
23492SOL     OW74269   9.174   0.135   0.523
23492SOL    HW174270   9.247   0.118   0.456
23492SOL    HW274271   9.143   0.048   0.561
23493SOL     OW74272   8.836   1.573   0.477
23493SOL    HW174273   8.903   1.585   0.403
23493SOL    HW274274   8.796   1.662   0.500
23494SOL     OW74275   7.578   1.794   1.851
23494SOL    HW174276   7.537   1.720   1.904
23494SOL    HW274277   7.642   1.845   1.909
23495SOL     OW74278   8.728   0.927   0.672
23495SOL    HW174279   8.788   0.846   0.674
23495SOL    HW274280   8.768   0.996   0.612
23496SOL     OW74281   8.278   1.273   1.422
23496SOL    HW174282   8.273   1.306   1.517
23496SOL    HW274283   8.192   1.292   1.376
23497SOL     OW74284   8.120   1.616   0.154
23497SOL    HW174285   8.129   1.626   0.055
23497SOL    HW274286   8.080   1.527   0.175
23498SOL     OW74287   9.098   1.720   1.394
23498SOL    HW174288   9.151   1.730   1.310
23498SOL    HW274289   9.071   1.810   1.428
23499SOL     OW74290   9.289   0.175   0.963
23499SOL    HW174291   9.328   0.090   0.927
23499SOL    HW274292   9.191   0.177   0.944
23500SOL     OW74293   7.711   0.326   0.720
23500SOL    HW174294   7.632   0.377   0.686
23500SOL    HW274295   7.702   0.311   0.818
23501SOL     OW74296   8.642   1.612   0.031
23501SOL    HW174297   8.648   1.519   0.068
23501SOL    HW274298   8.583   1.612  -0.049
23502SOL     OW74299   8.270   1.002   1.372
23502SOL    HW174300   8.310   1.001   1.280
23502SOL    HW274301   8.280   1.094   1.412
23503SOL     OW74302   8.364   0.910   0.291
23503SOL    HW174303   8.427   0.948   0.223
23503SOL    HW274304   8.404   0.827   0.330
23504SOL     OW74305   8.952   1.607   0.044
23504SOL    HW174306   8.860   1.644   0.051
23504SOL    HW274307   8.990   1.627  -0.046
23505SOL     OW74308   7.820   1.288   1.490
23505SOL    HW174309   7.807   1.381   1.456
23505SOL    HW274310   7.736   1.236   1.477
23506SOL     OW74311   9.062   1.292   1.289
23506SOL    HW174312   9.122   1.295   1.369
23506SOL    HW274313   8.987   1.356   1.302
23507SOL     OW74314   8.487   1.098   0.696
23507SOL    HW174315   8.417   1.051   0.750
23507SOL    HW274316   8.546   1.030   0.653
23508SOL     OW74317   8.462   0.236   0.971
23508SOL    HW174318   8.454   0.200   0.878
23508SOL    HW274319   8.460   0.160   1.036
23509SOL     OW74320   8.038   1.487   0.491
23509SOL    HW174321   8.080   1.429   0.421
23509SOL    HW274322   7.994   1.566   0.447
23510SOL     OW74323   9.157   0.385   1.381
23510SOL    HW174324   9.230   0.454   1.385
23510SOL    HW274325   9.185   0.310   1.322
23511SOL     OW74326   7.703   1.348   0.290
23511SOL    HW174327   7.607   1.349   0.263
23511SOL    HW274328   7.715   1.401   0.374
23512SOL     OW74329   7.553   1.013   1.726
23512SOL    HW174330   7.476   0.980   1.780
23512SOL    HW274331   7.638   0.983   1.768
23513SOL     OW74332   8.120   0.203   1.489
23513SOL    HW174333   8.210   0.187   1.449
23513SOL    HW274334   8.128   0.208   1.588
23514SOL     OW74335   7.523   0.345   0.033
23514SOL    HW174336   7.431   0.317   0.004
23514SOL    HW274337   7.554   0.422  -0.023
23515SOL     OW74338   8.888   0.856   1.398
23515SOL    HW174339   8.831   0.908   1.335
23515SOL    HW274340   8.984   0.868   1.374
23516SOL     OW74341   8.631   1.335   0.119
23516SOL    HW174342   8.532   1.324   0.121
23516SOL    HW274343   8.665   1.350   0.212
23517SOL     OW74344   8.061   0.842   1.431
23517SOL    HW174345   8.117   0.923   1.414
23517SOL    HW274346   8.120   0.762   1.434
23518SOL     OW74347   8.941   1.767   0.959
23518SOL    HW174348   8.974   1.831   0.890
23518SOL    HW274349   9.007   1.761   1.034
23519SOL     OW74350   8.164   0.565   1.708
23519SOL    HW174351   8.183   0.630   1.782
23519SOL    HW274352   8.224   0.485   1.717
23520SOL     OW74353   8.898   1.220   1.633
23520SOL    HW174354   8.889   1.210   1.732
23520SOL    HW274355   8.994   1.213   1.607
23521SOL     OW74356   7.838   1.741   1.560
23521SOL    HW174357   7.747   1.782   1.558
23521SOL    HW274358   7.831   1.647   1.592
23522SOL     OW74359   9.122   0.883   1.254
23522SOL    HW174360   9.095   0.794   1.217
23522SOL    HW274361   9.123   0.951   1.181
23523SOL     OW74362   8.042   0.745   0.652
23523SOL    HW174363   8.092   0.830   0.633
23523SOL    HW274364   7.954   0.747   0.604
23524SOL     OW74365   9.225   0.342   1.642
23524SOL    HW174366   9.208   0.373   1.548
23524SOL    HW274367   9.141   0.305   1.680
23525SOL     OW74368   9.178   0.934   1.517
23525SOL    HW174369   9.216   1.025   1.532
23525SOL    HW274370   9.170   0.917   1.418
23526SOL     OW74371   8.307   1.374   0.016
23526SOL    HW174372   8.261   1.389   0.104
23526SOL    HW274373   8.351   1.459  -0.014
23527SOL     OW74374   8.109   1.790   0.953
23527SOL    HW174375   8.063   1.878   0.940
23527SOL    HW274376   8.208   1.802   0.946
23528SOL     OW74377   8.307   0.956   0.861
23528SOL    HW174378   8.361   0.887   0.909
23528SOL    HW274379   8.275   1.025   0.927
23529SOL     OW74380   8.531   0.984   0.087
23529SOL    HW174381   8.508   1.037   0.005
23529SOL    HW274382   8.612   0.928   0.068
23530SOL     OW74383   9.309   1.569   0.851
23530SOL    HW174384   9.238   1.557   0.781
23530SOL    HW274385   9.310   1.490   0.911
23531SOL     OW74386   7.669   1.314   1.844
23531SOL    HW174387   7.604   1.241   1.823
23531SOL    HW274388   7.673   1.328   1.942
23532SOL     OW74389   7.527   1.240   0.653
23532SOL    HW174390   7.526   1.193   0.741
23532SOL    HW274391   7.609   1.212   0.602
23533SOL     OW74392   8.120   1.391   1.624
23533SOL    HW174393   8.042   1.341   1.662
23533SOL    HW274394   8.117   1.486   1.655
23534SOL     OW74395   9.272   0.192   1.227
23534SOL    HW174396   9.268   0.102   1.271
23534SOL    HW274397   9.275   0.181   1.128
23535SOL     OW74398   7.876   0.424   0.520
23535SOL    HW174399   7.906   0.352   0.458
23535SOL    HW274400   7.837   0.384   0.603
23536SOL     OW74401   9.153   1.487   1.104
23536SOL    HW174402   9.060   1.462   1.077
23536SOL    HW274403   9.179   1.437   1.186
23537SOL     OW74404   7.765   0.547   1.280
23537SOL    HW174405   7.803   0.488   1.352
23537SOL    HW274406   7.805   0.521   1.192
23538SOL     OW74407   8.872   0.214   1.112
23538SOL    HW174408   8.924   0.149   1.167
23538SOL    HW274409   8.823   0.277   1.173
23539SOL     OW74410   8.449   0.034   1.154
23539SOL    HW174411   8.386  -0.038   1.123
23539SOL    HW274412   8.542  -0.002   1.154
23540SOL     OW74413   8.218   1.330   0.301
23540SOL    HW174414   8.172   1.243   0.318
23540SOL    HW274415   8.309   1.327   0.342
23541SOL     OW74416   8.066   1.567   1.284
23541SOL    HW174417   8.061   1.649   1.341
23541SOL    HW274418   8.155   1.564   1.239
23542SOL     OW74419   8.800   0.052   0.168
23542SOL    HW174420   8.835   0.011   0.084
23542SOL    HW274421   8.710   0.014   0.188
23543SOL     OW74422   9.041   0.221   0.882
23543SOL    HW174423   8.957   0.220   0.936
23543SOL    HW274424   9.043   0.304   0.826
23544SOL     OW74425   8.323   1.646   0.337
23544SOL    HW174426   8.246   1.611   0.283
23544SOL    HW274427   8.291   1.717   0.399
23545SOL     OW74428   7.673   0.275   2.858
23545SOL    HW174429   7.708   0.258   2.950
23545SOL    HW274430   7.585   0.230   2.846
23546SOL     OW74431   7.467   0.368   2.509
23546SOL    HW174432   7.385   0.411   2.548
23546SOL    HW274433   7.439   0.295   2.446
23547SOL     OW74434   8.017   1.275   3.027
23547SOL    HW174435   7.924   1.268   2.990
23547SOL    HW274436   8.028   1.364   3.071
23548SOL     OW74437   9.003   1.511   2.565
23548SOL    HW174438   8.946   1.495   2.646
23548SOL    HW274439   8.944   1.521   2.485
23549SOL     OW74440   8.583   0.703   2.579
23549SOL    HW174441   8.640   0.781   2.554
23549SOL    HW274442   8.523   0.729   2.655
23550SOL     OW74443   8.216   1.144   2.885
23550SOL    HW174444   8.138   1.161   2.945
23550SOL    HW274445   8.250   1.231   2.849
23551SOL     OW74446   8.298   0.798   3.685
23551SOL    HW174447   8.294   0.874   3.750
23551SOL    HW274448   8.320   0.834   3.594
23552SOL     OW74449   8.133   1.012   2.527
23552SOL    HW174450   8.202   0.996   2.597
23552SOL    HW274451   8.060   1.069   2.565
23553SOL     OW74452   8.134   1.161   3.665
23553SOL    HW174453   8.194   1.240   3.679
23553SOL    HW274454   8.048   1.192   3.624
23554SOL     OW74455   7.783   1.435   2.923
23554SOL    HW174456   7.705   1.404   2.870
23554SOL    HW274457   7.841   1.493   2.866
23555SOL     OW74458   8.908   1.505   3.201
23555SOL    HW174459   8.932   1.599   3.227
23555SOL    HW274460   8.892   1.451   3.283
23556SOL     OW74461   7.886   0.392   3.361
23556SOL    HW174462   7.968   0.336   3.370
23556SOL    HW274463   7.805   0.334   3.365
23557SOL     OW74464   9.051   0.447   2.599
23557SOL    HW174465   8.977   0.493   2.549
23557SOL    HW274466   9.102   0.515   2.652
23558SOL     OW74467   7.679   1.713   2.345
23558SOL    HW174468   7.713   1.790   2.399
23558SOL    HW274469   7.723   1.713   2.255
23559SOL     OW74470   8.575   1.341   3.552
23559SOL    HW174471   8.622   1.341   3.640
23559SOL    HW274472   8.527   1.254   3.541
23560SOL     OW74473   7.678   1.434   2.400
23560SOL    HW174474   7.652   1.530   2.400
23560SOL    HW274475   7.607   1.380   2.445
23561SOL     OW74476   7.688   1.091   2.748
23561SOL    HW174477   7.702   1.007   2.800
23561SOL    HW274478   7.633   1.155   2.803
23562SOL     OW74479   8.068   1.786   3.301
23562SOL    HW174480   7.976   1.769   3.336
23562SOL    HW274481   8.096   1.878   3.327
23563SOL     OW74482   8.054   0.964   1.985
23563SOL    HW174483   8.061   1.048   1.931
23563SOL    HW274484   8.100   0.977   2.073
23564SOL     OW74485   9.042   0.114   3.342
23564SOL    HW174486   9.024   0.181   3.270
23564SOL    HW274487   9.039   0.160   3.431
23565SOL     OW74488   7.570   0.643   2.425
23565SOL    HW174489   7.525   0.555   2.442
23565SOL    HW274490   7.569   0.697   2.509
23566SOL     OW74491   9.290   1.767   2.221
23566SOL    HW174492   9.344   1.738   2.301
23566SOL    HW274493   9.320   1.857   2.192
23567SOL     OW74494   7.475   1.596   1.979
23567SOL    HW174495   7.456   1.500   2.000
23567SOL    HW274496   7.442   1.654   2.054
23568SOL     OW74497   9.137   0.922   2.474
23568SOL    HW174498   9.232   0.893   2.482
23568SOL    HW274499   9.129   0.987   2.399
23569SOL     OW74500   9.089   1.108   2.294
23569SOL    HW174501   9.175   1.110   2.242
23569SOL    HW274502   9.103   1.155   2.382
23570SOL     OW74503   7.561   0.737   3.459
23570SOL    HW174504   7.649   0.724   3.504
23570SOL    HW274505   7.548   0.834   3.437
23571SOL     OW74506   8.061   1.365   2.588
23571SOL    HW174507   8.012   1.278   2.597
23571SOL    HW274508   8.038   1.408   2.501
23572SOL     OW74509   8.741   1.228   3.285
23572SOL    HW174510   8.778   1.155   3.227
23572SOL    HW274511   8.793   1.233   3.370
23573SOL     OW74512   8.257   0.004   2.364
23573SOL    HW174513   8.297   0.095   2.355
23573SOL    HW274514   8.157   0.012   2.370
23574SOL     OW74515   7.645   0.976   3.126
23574SOL    HW174516   7.734   0.931   3.112
23574SOL    HW274517   7.572   0.911   3.107
23575SOL     OW74518   8.973   0.999   2.052
23575SOL    HW174519   8.910   0.923   2.065
23575SOL    HW274520   9.021   1.017   2.138
23576SOL     OW74521   8.635   1.792   3.478
23576SOL    HW174522   8.659   1.852   3.402
23576SOL    HW274523   8.642   1.697   3.448
23577SOL     OW74524   7.765   0.251   3.663
23577SOL    HW174525   7.836   0.322   3.669
23577SOL    HW274526   7.677   0.290   3.691
23578SOL     OW74527   8.914   1.417   2.815
23578SOL    HW174528   8.855   1.423   2.895
23578SOL    HW274529   8.899   1.329   2.769
23579SOL     OW74530   9.115   1.714   2.434
23579SOL    HW174531   9.074   1.691   2.346
23579SOL    HW274532   9.097   1.640   2.499
23580SOL     OW74533   8.046   0.729   2.132
23580SOL    HW174534   8.070   0.798   2.064
23580SOL    HW274535   7.968   0.762   2.186
23581SOL     OW74536   8.729   0.345   2.806
23581SOL    HW174537   8.643   0.295   2.793
23581SOL    HW274538   8.791   0.291   2.862
23582SOL     OW74539   9.024   1.662   2.169
23582SOL    HW174540   9.113   1.708   2.172
23582SOL    HW274541   9.003   1.638   2.074
23583SOL     OW74542   8.255   0.605   3.327
23583SOL    HW174543   8.208   0.602   3.416
23583SOL    HW274544   8.204   0.550   3.261
23584SOL     OW74545   8.421   0.890   3.434
23584SOL    HW174546   8.467   0.806   3.405
23584SOL    HW274547   8.365   0.924   3.359
23585SOL     OW74548   8.439   0.410   3.104
23585SOL    HW174549   8.362   0.444   3.158
23585SOL    HW274550   8.405   0.359   3.025
23586SOL     OW74551   8.489   0.701   2.291
23586SOL    HW174552   8.515   0.697   2.387
23586SOL    HW274553   8.404   0.650   2.277
23587SOL     OW74554   7.524   0.811   2.651
23587SOL    HW174555   7.623   0.799   2.660
23587SOL    HW274556   7.500   0.906   2.672
23588SOL     OW74557   7.578   1.821   3.433
23588SOL    HW174558   7.568   1.806   3.532
23588SOL    HW274559   7.492   1.857   3.397
23589SOL     OW74560   8.313   0.348   2.057
23589SOL    HW174561   8.372   0.411   2.008
23589SOL    HW274562   8.332   0.254   2.028
23590SOL     OW74563   8.810   1.144   2.407
23590SOL    HW174564   8.893   1.115   2.359
23590SOL    HW274565   8.761   1.211   2.351
23591SOL     OW74566   7.998   0.196   2.747
23591SOL    HW174567   7.993   0.191   2.847
23591SOL    HW274568   8.000   0.292   2.718
23592SOL     OW74569   7.799   1.801   2.715
23592SOL    HW174570   7.849   1.715   2.721
23592SOL    HW274571   7.864   1.878   2.712
23593SOL     OW74572   9.243   1.066   2.735
23593SOL    HW174573   9.181   1.051   2.659
23593SOL    HW274574   9.191   1.077   2.820
23594SOL     OW74575   8.675   1.550   3.368
23594SOL    HW174576   8.681   1.473   3.432
23594SOL    HW274577   8.623   1.524   3.288
23595SOL     OW74578   7.769   0.943   2.104
23595SOL    HW174579   7.851   0.982   2.062
23595SOL    HW274580   7.742   0.861   2.055
23596SOL     OW74581   8.906   0.735   2.590
23596SOL    HW174582   8.901   0.670   2.665
23596SOL    HW274583   8.986   0.794   2.603
23597SOL     OW74584   7.909   1.266   3.589
23597SOL    HW174585   7.859   1.267   3.503
23597SOL    HW274586   7.846   1.248   3.665
23598SOL     OW74587   7.650   0.285   3.360
23598SOL    HW174588   7.570   0.345   3.347
23598SOL    HW274589   7.640   0.236   3.446
23599SOL     OW74590   9.080   1.377   1.943
23599SOL    HW174591   9.048   1.471   1.933
23599SOL    HW274592   9.004   1.314   1.931
23600SOL     OW74593   7.912   1.743   2.185
23600SOL    HW174594   7.945   1.782   2.271
23600SOL    HW274595   7.988   1.736   2.120
23601SOL     OW74596   8.848   0.107   2.288
23601SOL    HW174597   8.824   0.070   2.198
23601SOL    HW274598   8.947   0.123   2.292
23602SOL     OW74599   7.697   1.785   3.103
23602SOL    HW174600   7.754   1.720   3.153
23602SOL    HW274601   7.681   1.752   3.010
23603SOL     OW74602   8.388   1.698   2.766
23603SOL    HW174603   8.468   1.641   2.787
23603SOL    HW274604   8.339   1.658   2.689
23604SOL     OW74605   7.830   0.700   2.342
23604SOL    HW174606   7.875   0.610   2.339
23604SOL    HW274607   7.736   0.689   2.375
23605SOL     OW74608   8.995   0.222   3.591
23605SOL    HW174609   8.990   0.259   3.683
23605SOL    HW274610   8.923   0.153   3.579
23606SOL     OW74611   8.062   0.122   1.979
23606SOL    HW174612   8.160   0.100   1.986
23606SOL    HW274613   8.031   0.105   1.886
23607SOL     OW74614   8.336   1.514   3.057
23607SOL    HW174615   8.313   1.489   2.963
23607SOL    HW274616   8.397   1.445   3.096
23608SOL     OW74617   8.799   0.590   3.295
23608SOL    HW174618   8.827   0.547   3.380
23608SOL    HW274619   8.824   0.686   3.296
23609SOL     OW74620   8.251   1.402   2.786
23609SOL    HW174621   8.341   1.416   2.744
23609SOL    HW274622   8.180   1.404   2.715
23610SOL     OW74623   8.370   0.503   2.761
23610SOL    HW174624   8.345   0.494   2.665
23610SOL    HW274625   8.418   0.421   2.792
23611SOL     OW74626   7.987   0.064   2.374
23611SOL    HW174627   7.906   0.065   2.432
23611SOL    HW274628   7.990   0.147   2.319
23612SOL     OW74629   8.882   1.188   1.903
23612SOL    HW174630   8.914   1.112   1.960
23612SOL    HW274631   8.790   1.215   1.933
23613SOL     OW74632   7.745   0.035   2.033
23613SOL    HW174633   7.794   0.119   2.012
23613SOL    HW274634   7.807  -0.030   2.078
23614SOL     OW74635   8.383   0.236   2.342
23614SOL    HW174636   8.335   0.277   2.264
23614SOL    HW274637   8.482   0.234   2.323
23615SOL     OW74638   8.524   0.683   3.326
23615SOL    HW174639   8.444   0.622   3.329
23615SOL    HW274640   8.605   0.630   3.302
23616SOL     OW74641   8.675   1.570   2.655
23616SOL    HW174642   8.696   1.644   2.590
23616SOL    HW274643   8.743   1.570   2.728
23617SOL     OW74644   7.907   1.152   2.603
23617SOL    HW174645   7.836   1.125   2.668
23617SOL    HW274646   7.881   1.124   2.510
23618SOL     OW74647   8.719   1.797   2.453
23618SOL    HW174648   8.763   1.861   2.389
23618SOL    HW274649   8.669   1.849   2.523
23619SOL     OW74650   8.480   0.549   1.878
23619SOL    HW174651   8.439   0.631   1.839
23619SOL    HW274652   8.544   0.575   1.951
23620SOL     OW74653   7.526   0.556   3.248
23620SOL    HW174654   7.618   0.555   3.207
23620SOL    HW274655   7.520   0.630   3.315
23621SOL     OW74656   8.009   0.222   3.009
23621SOL    HW174657   8.047   0.138   3.046
23621SOL    HW274658   7.921   0.241   3.053
23622SOL     OW74659   8.314   0.454   2.504
23622SOL    HW174660   8.282   0.526   2.442
23622SOL    HW274661   8.338   0.373   2.451
23623SOL     OW74662   8.465   0.039   2.615
23623SOL    HW174663   8.393   0.044   2.546
23623SOL    HW274664   8.441  -0.030   2.684
23624SOL     OW74665   8.877   1.173   2.729
23624SOL    HW174666   8.822   1.089   2.722
23624SOL    HW274667   8.903   1.202   2.637
23625SOL     OW74668   8.914   0.590   2.854
23625SOL    HW174669   8.884   0.495   2.861
23625SOL    HW274670   8.987   0.606   2.920
23626SOL     OW74671   7.936   1.385   2.036
23626SOL    HW174672   7.849   1.370   2.083
23626SOL    HW274673   7.919   1.411   1.941
23627SOL     OW74674   9.112   1.280   2.519
23627SOL    HW174675   9.211   1.288   2.533
23627SOL    HW274676   9.067   1.364   2.550
23628SOL     OW74677   8.838   0.575   1.940
23628SOL    HW174678   8.784   0.554   2.021
23628SOL    HW274679   8.929   0.534   1.949
23629SOL     OW74680   7.975   0.256   2.190
23629SOL    HW174681   8.002   0.197   2.115
23629SOL    HW274682   7.975   0.351   2.159
23630SOL     OW74683   9.202   1.223   3.450
23630SOL    HW174684   9.293   1.184   3.437
23630SOL    HW274685   9.210   1.319   3.474
23631SOL     OW74686   8.512   1.347   3.202
23631SOL    HW174687   8.432   1.324   3.257
23631SOL    HW274688   8.595   1.321   3.251
23632SOL     OW74689   9.040   1.629   3.487
23632SOL    HW174690   9.067   1.663   3.397
23632SOL    HW274691   9.119   1.591   3.533
23633SOL     OW74692   8.559   1.195   2.962
23633SOL    HW174693   8.519   1.239   3.043
23633SOL    HW274694   8.518   1.232   2.879
23634SOL     OW74695   9.086   1.099   2.941
23634SOL    HW174696   9.091   1.180   3.000
23634SOL    HW274697   9.000   1.101   2.890
23635SOL     OW74698   8.428   1.116   3.581
23635SOL    HW174699   8.329   1.122   3.591
23635SOL    HW274700   8.451   1.036   3.525
23636SOL     OW74701   8.153   1.050   2.230
23636SOL    HW174702   8.139   1.057   2.329
23636SOL    HW274703   8.237   0.999   2.212
23637SOL     OW74704   7.858   0.813   3.113
23637SOL    HW174705   7.944   0.825   3.163
23637SOL    HW274706   7.816   0.726   3.140
23638SOL     OW74707   8.722   0.386   3.124
23638SOL    HW174708   8.743   0.460   3.188
23638SOL    HW274709   8.633   0.403   3.081
23639SOL     OW74710   7.512   1.564   3.193
23639SOL    HW174711   7.466   1.646   3.159
23639SOL    HW274712   7.610   1.583   3.202
23640SOL     OW74713   7.815   1.100   2.363
23640SOL    HW174714   7.808   1.183   2.307
23640SOL    HW274715   7.819   1.020   2.303
23641SOL     OW74716   8.014   0.537   2.727
23641SOL    HW174717   8.026   0.603   2.653
23641SOL    HW274718   8.060   0.571   2.810
23642SOL     OW74719   8.720   1.445   3.004
23642SOL    HW174720   8.767   1.458   3.091
23642SOL    HW274721   8.654   1.371   3.013
23643SOL     OW74722   9.030   0.639   2.334
23643SOL    HW174723   8.999   0.700   2.407
23643SOL    HW274724   9.080   0.691   2.265
23644SOL     OW74725   7.802   1.510   3.191
23644SOL    HW174726   7.781   1.466   3.104
23644SOL    HW274727   7.899   1.536   3.194
23645SOL     OW74728   7.850   0.751   3.460
23645SOL    HW174729   7.918   0.806   3.413
23645SOL    HW274730   7.890   0.663   3.487
23646SOL     OW74731   9.035   0.779   3.532
23646SOL    HW174732   8.943   0.817   3.527
23646SOL    HW274733   9.095   0.826   3.467
23647SOL     OW74734   7.952   0.050   3.602
23647SOL    HW174735   7.910  -0.007   3.532
23647SOL    HW274736   7.886   0.119   3.634
23648SOL     OW74737   8.021   0.870   2.891
23648SOL    HW174738   8.065   0.959   2.882
23648SOL    HW274739   7.958   0.870   2.968
23649SOL     OW74740   8.808   0.862   2.907
23649SOL    HW174741   8.733   0.862   2.841
23649SOL    HW274742   8.845   0.770   2.916
23650SOL     OW74743   8.657   0.525   2.137
23650SOL    HW174744   8.670   0.441   2.191
23650SOL    HW274745   8.628   0.599   2.197
23651SOL     OW74746   7.755   0.213   3.093
23651SOL    HW174747   7.732   0.250   3.183
23651SOL    HW274748   7.725   0.118   3.087
23652SOL     OW74749   7.485   1.310   3.144
23652SOL    HW174750   7.538   1.261   3.212
23652SOL    HW274751   7.507   1.408   3.149
23653SOL     OW74752   8.180   0.634   2.926
23653SOL    HW174753   8.239   0.608   2.850
23653SOL    HW274754   8.152   0.730   2.915
23654SOL     OW74755   9.176   0.935   3.716
23654SOL    HW174756   9.130   0.928   3.627
23654SOL    HW274757   9.114   0.979   3.782
23655SOL     OW74758   7.755   0.063   2.480
23655SOL    HW174759   7.744   0.157   2.513
23655SOL    HW274760   7.750   0.000   2.557
23656SOL     OW74761   9.070   0.367   2.236
23656SOL    HW174762   9.072   0.291   2.300
23656SOL    HW274763   9.022   0.444   2.276
23657SOL     OW74764   8.471   0.766   2.828
23657SOL    HW174765   8.486   0.787   2.924
23657SOL    HW274766   8.441   0.671   2.819
23658SOL     OW74767   8.428   1.573   3.562
23658SOL    HW174768   8.408   1.617   3.474
23658SOL    HW274769   8.467   1.482   3.546
23659SOL     OW74770   9.307   1.518   3.467
23659SOL    HW174771   9.321   1.545   3.372
23659SOL    HW274772   9.390   1.540   3.520
23660SOL     OW74773   7.798   0.898   3.666
23660SOL    HW174774   7.874   0.942   3.714
23660SOL    HW274775   7.833   0.851   3.584
23661SOL     OW74776   8.988   0.274   1.987
23661SOL    HW174777   8.927   0.199   2.010
23661SOL    HW274778   9.010   0.326   2.070
23662SOL     OW74779   8.751   0.838   1.904
23662SOL    HW174780   8.785   0.745   1.919
23662SOL    HW274781   8.769   0.865   1.809
23663SOL     OW74782   8.516   1.333   2.711
23663SOL    HW174783   8.523   1.249   2.656
23663SOL    HW274784   8.578   1.402   2.675
23664SOL     OW74785   7.767   0.810   2.811
23664SOL    HW174786   7.860   0.846   2.816
23664SOL    HW274787   7.761   0.725   2.863
23665SOL     OW74788   7.787   0.509   2.868
23665SOL    HW174789   7.735   0.426   2.851
23665SOL    HW274790   7.864   0.514   2.804
23666SOL     OW74791   8.586   0.380   3.540
23666SOL    HW174792   8.541   0.443   3.604
23666SOL    HW274793   8.679   0.411   3.523
23667SOL     OW74794   8.608   0.207   3.339
23667SOL    HW174795   8.608   0.271   3.416
23667SOL    HW274796   8.636   0.255   3.256
23668SOL     OW74797   7.456   1.326   2.062
23668SOL    HW174798   7.363   1.347   2.031
23668SOL    HW274799   7.466   1.227   2.075
23669SOL     OW74800   7.536   1.801   2.789
23669SOL    HW174801   7.494   1.715   2.762
23669SOL    HW274802   7.630   1.804   2.755
23670SOL     OW74803   7.952   1.568   2.772
23670SOL    HW174804   8.018   1.642   2.781
23670SOL    HW274805   7.996   1.489   2.730
23671SOL     OW74806   8.450   0.796   3.100
23671SOL    HW174807   8.491   0.764   3.186
23671SOL    HW274808   8.354   0.769   3.097
23672SOL     OW74809   7.488   0.544   2.976
23672SOL    HW174810   7.573   0.511   2.935
23672SOL    HW274811   7.501   0.559   3.074
23673SOL     OW74812   7.637   0.520   3.584
23673SOL    HW174813   7.696   0.480   3.514
23673SOL    HW274814   7.579   0.591   3.543
23674SOL     OW74815   8.817   0.950   3.522
23674SOL    HW174816   8.856   1.039   3.542
23674SOL    HW274817   8.827   0.930   3.425
23675SOL     OW74818   8.263   0.572   2.187
23675SOL    HW174819   8.270   0.483   2.141
23675SOL    HW274820   8.169   0.606   2.179
23676SOL     OW74821   9.105   0.604   3.068
23676SOL    HW174822   9.067   0.535   3.130
23676SOL    HW274823   9.187   0.568   3.024
23677SOL     OW74824   7.700   1.564   3.606
23677SOL    HW174825   7.670   1.621   3.682
23677SOL    HW274826   7.693   1.467   3.632
23678SOL     OW74827   8.119   0.464   3.131
23678SOL    HW174828   8.085   0.375   3.101
23678SOL    HW274829   8.145   0.518   3.051
23679SOL     OW74830   8.378   1.678   3.327
23679SOL    HW174831   8.354   1.660   3.232
23679SOL    HW274832   8.408   1.772   3.337
23680SOL     OW74833   7.921   0.500   2.053
23680SOL    HW174834   7.982   0.580   2.057
23680SOL    HW274835   7.826   0.531   2.060
23681SOL     OW74836   7.607   1.137   3.328
23681SOL    HW174837   7.629   1.076   3.404
23681SOL    HW274838   7.617   1.088   3.242
23682SOL     OW74839   8.795   1.059   3.096
23682SOL    HW174840   8.819   0.996   3.022
23682SOL    HW274841   8.705   1.099   3.078
23683SOL     OW74842   8.750   0.855   2.171
23683SOL    HW174843   8.664   0.824   2.213
23683SOL    HW274844   8.746   0.841   2.072
23684SOL     OW74845   9.207   1.747   3.016
23684SOL    HW174846   9.268   1.777   2.943
23684SOL    HW274847   9.169   1.658   2.994
23685SOL     OW74848   8.700   1.731   2.990
23685SOL    HW174849   8.784   1.736   2.936
23685SOL    HW274850   8.677   1.635   3.008
23686SOL     OW74851   7.531   1.258   2.884
23686SOL    HW174852   7.526   1.257   2.984
23686SOL    HW274853   7.448   1.217   2.846
23687SOL     OW74854   8.136   1.662   3.578
23687SOL    HW174855   8.080   1.743   3.587
23687SOL    HW274856   8.188   1.666   3.492
23688SOL     OW74857   9.174   0.135   2.385
23688SOL    HW174858   9.247   0.118   2.318
23688SOL    HW274859   9.143   0.048   2.423
23689SOL     OW74860   7.578   1.794   3.713
23689SOL    HW174861   7.537   1.720   3.766
23689SOL    HW274862   7.642   1.845   3.771
23690SOL     OW74863   8.728   0.927   2.534
23690SOL    HW174864   8.788   0.846   2.536
23690SOL    HW274865   8.768   0.996   2.474
23691SOL     OW74866   8.278   1.273   3.284
23691SOL    HW174867   8.273   1.306   3.379
23691SOL    HW274868   8.192   1.292   3.238
23692SOL     OW74869   8.120   1.616   2.016
23692SOL    HW174870   8.129   1.626   1.917
23692SOL    HW274871   8.080   1.527   2.037
23693SOL     OW74872   9.098   1.720   3.256
23693SOL    HW174873   9.151   1.730   3.172
23693SOL    HW274874   9.071   1.810   3.290
23694SOL     OW74875   9.289   0.175   2.825
23694SOL    HW174876   9.328   0.090   2.789
23694SOL    HW274877   9.191   0.177   2.806
23695SOL     OW74878   7.711   0.326   2.582
23695SOL    HW174879   7.632   0.377   2.548
23695SOL    HW274880   7.702   0.311   2.680
23696SOL     OW74881   8.270   1.002   3.234
23696SOL    HW174882   8.310   1.001   3.142
23696SOL    HW274883   8.280   1.094   3.274
23697SOL     OW74884   8.364   0.910   2.153
23697SOL    HW174885   8.427   0.948   2.085
23697SOL    HW274886   8.404   0.827   2.192
23698SOL     OW74887   8.952   1.607   1.906
23698SOL    HW174888   8.860   1.644   1.913
23698SOL    HW274889   8.990   1.627   1.816
23699SOL     OW74890   7.820   1.288   3.352
23699SOL    HW174891   7.807   1.381   3.318
23699SOL    HW274892   7.736   1.236   3.339
23700SOL     OW74893   9.062   1.292   3.151
23700SOL    HW174894   9.122   1.295   3.231
23700SOL    HW274895   8.987   1.356   3.164
23701SOL     OW74896   8.487   1.098   2.558
23701SOL    HW174897   8.417   1.051   2.612
23701SOL    HW274898   8.546   1.030   2.515
23702SOL     OW74899   8.462   0.236   2.833
23702SOL    HW174900   8.454   0.200   2.740
23702SOL    HW274901   8.460   0.160   2.898
23703SOL     OW74902   8.038   1.487   2.353
23703SOL    HW174903   8.080   1.429   2.283
23703SOL    HW274904   7.994   1.566   2.309
23704SOL     OW74905   7.703   1.348   2.152
23704SOL    HW174906   7.607   1.349   2.125
23704SOL    HW274907   7.715   1.401   2.236
23705SOL     OW74908   7.553   1.013   3.588
23705SOL    HW174909   7.476   0.980   3.642
23705SOL    HW274910   7.638   0.983   3.630
23706SOL     OW74911   8.120   0.203   3.351
23706SOL    HW174912   8.210   0.187   3.311
23706SOL    HW274913   8.128   0.208   3.450
23707SOL     OW74914   8.888   0.856   3.260
23707SOL    HW174915   8.831   0.908   3.197
23707SOL    HW274916   8.984   0.868   3.236
23708SOL     OW74917   7.520   0.166   2.180
23708SOL    HW174918   7.503   0.249   2.126
23708SOL    HW274919   7.610   0.129   2.158
23709SOL     OW74920   8.061   0.842   3.293
23709SOL    HW174921   8.117   0.923   3.276
23709SOL    HW274922   8.120   0.762   3.296
23710SOL     OW74923   8.941   1.767   2.821
23710SOL    HW174924   8.974   1.831   2.752
23710SOL    HW274925   9.007   1.761   2.896
23711SOL     OW74926   8.164   0.565   3.570
23711SOL    HW174927   8.183   0.630   3.644
23711SOL    HW274928   8.224   0.485   3.579
23712SOL     OW74929   8.898   1.220   3.495
23712SOL    HW174930   8.889   1.210   3.594
23712SOL    HW274931   8.994   1.213   3.469
23713SOL     OW74932   7.838   1.741   3.422
23713SOL    HW174933   7.747   1.782   3.420
23713SOL    HW274934   7.831   1.647   3.454
23714SOL     OW74935   9.122   0.883   3.116
23714SOL    HW174936   9.095   0.794   3.079
23714SOL    HW274937   9.123   0.951   3.043
23715SOL     OW74938   8.673   0.325   2.311
23715SOL    HW174939   8.738   0.251   2.300
23715SOL    HW274940   8.693   0.375   2.395
23716SOL     OW74941   8.042   0.745   2.514
23716SOL    HW174942   8.092   0.830   2.495
23716SOL    HW274943   7.954   0.747   2.466
23717SOL     OW74944   9.178   0.934   3.379
23717SOL    HW174945   9.216   1.025   3.394
23717SOL    HW274946   9.170   0.917   3.280
23718SOL     OW74947   8.109   1.790   2.815
23718SOL    HW174948   8.063   1.878   2.802
23718SOL    HW274949   8.208   1.802   2.808
23719SOL     OW74950   8.307   0.956   2.723
23719SOL    HW174951   8.361   0.887   2.771
23719SOL    HW274952   8.275   1.025   2.789
23720SOL     OW74953   8.531   0.984   1.949
23720SOL    HW174954   8.508   1.037   1.867
23720SOL    HW274955   8.612   0.928   1.930
23721SOL     OW74956   9.309   1.569   2.713
23721SOL    HW174957   9.238   1.557   2.643
23721SOL    HW274958   9.310   1.490   2.773
23722SOL     OW74959   7.669   1.314   3.706
23722SOL    HW174960   7.604   1.241   3.685
23722SOL    HW274961   7.673   1.328   3.804
23723SOL     OW74962   7.527   1.240   2.515
23723SOL    HW174963   7.526   1.193   2.603
23723SOL    HW274964   7.609   1.212   2.464
23724SOL     OW74965   8.120   1.391   3.486
23724SOL    HW174966   8.042   1.341   3.524
23724SOL    HW274967   8.117   1.486   3.517
23725SOL     OW74968   9.272   0.192   3.089
23725SOL    HW174969   9.268   0.102   3.133
23725SOL    HW274970   9.275   0.181   2.990
23726SOL     OW74971   7.876   0.424   2.382
23726SOL    HW174972   7.906   0.352   2.320
23726SOL    HW274973   7.837   0.384   2.465
23727SOL     OW74974   9.153   1.487   2.966
23727SOL    HW174975   9.060   1.462   2.939
23727SOL    HW274976   9.179   1.437   3.048
23728SOL     OW74977   7.765   0.547   3.142
23728SOL    HW174978   7.803   0.488   3.214
23728SOL    HW274979   7.805   0.521   3.054
23729SOL     OW74980   8.260   1.586   2.549
23729SOL    HW174981   8.292   1.596   2.455
23729SOL    HW274982   8.181   1.524   2.551
23730SOL     OW74983   8.872   0.214   2.974
23730SOL    HW174984   8.924   0.149   3.029
23730SOL    HW274985   8.823   0.277   3.035
23731SOL     OW74986   8.449   0.034   3.016
23731SOL    HW174987   8.386  -0.038   2.985
23731SOL    HW274988   8.542  -0.002   3.016
23732SOL     OW74989   8.218   1.330   2.163
23732SOL    HW174990   8.172   1.243   2.180
23732SOL    HW274991   8.309   1.327   2.204
23733SOL     OW74992   8.066   1.567   3.146
23733SOL    HW174993   8.061   1.649   3.203
23733SOL    HW274994   8.155   1.564   3.101
23734SOL     OW74995   8.800   0.052   2.030
23734SOL    HW174996   8.835   0.011   1.946
23734SOL    HW274997   8.710   0.014   2.050
23735SOL     OW74998   8.748   0.453   2.553
23735SOL    HW174999   8.689   0.533   2.557
23735SOL    HW275000   8.763   0.418   2.646
23736SOL     OW75001   9.041   0.221   2.744
23736SOL    HW175002   8.957   0.220   2.798
23736SOL    HW275003   9.043   0.304   2.688
23737SOL     OW75004   7.487   1.077   2.162
23737SOL    HW175005   7.586   1.066   2.153
23737SOL    HW275006   7.447   0.991   2.194
23738SOL     OW75007   8.323   1.646   2.199
23738SOL    HW175008   8.246   1.611   2.145
23738SOL    HW275009   8.291   1.717   2.261
23739SOL     OW75010   7.678   0.628   3.837
23739SOL    HW175011   7.585   0.626   3.874
23739SOL    HW275012   7.679   0.589   3.745
23740SOL     OW75013   7.673   0.275   4.720
23740SOL    HW175014   7.708   0.258   4.812
23740SOL    HW275015   7.585   0.230   4.708
23741SOL     OW75016   7.467   0.368   4.371
23741SOL    HW175017   7.385   0.411   4.410
23741SOL    HW275018   7.439   0.295   4.308
23742SOL     OW75019   8.017   1.275   4.889
23742SOL    HW175020   7.924   1.268   4.852
23742SOL    HW275021   8.028   1.364   4.933
23743SOL     OW75022   9.003   1.511   4.427
23743SOL    HW175023   8.946   1.495   4.508
23743SOL    HW275024   8.944   1.521   4.347
23744SOL     OW75025   8.583   0.703   4.441
23744SOL    HW175026   8.640   0.781   4.416
23744SOL    HW275027   8.523   0.729   4.517
23745SOL     OW75028   9.203   0.607   3.955
23745SOL    HW175029   9.191   0.594   3.856
23745SOL    HW275030   9.173   0.526   4.004
23746SOL     OW75031   8.216   1.144   4.747
23746SOL    HW175032   8.138   1.161   4.807
23746SOL    HW275033   8.250   1.231   4.711
23747SOL     OW75034   8.298   0.798   5.547
23747SOL    HW175035   8.294   0.874   5.612
23747SOL    HW275036   8.320   0.834   5.456
23748SOL     OW75037   8.133   1.012   4.389
23748SOL    HW175038   8.202   0.996   4.459
23748SOL    HW275039   8.060   1.069   4.427
23749SOL     OW75040   8.134   1.161   5.527
23749SOL    HW175041   8.194   1.240   5.541
23749SOL    HW275042   8.048   1.192   5.486
23750SOL     OW75043   7.783   1.435   4.785
23750SOL    HW175044   7.705   1.404   4.732
23750SOL    HW275045   7.841   1.493   4.728
23751SOL     OW75046   8.908   1.505   5.063
23751SOL    HW175047   8.932   1.599   5.089
23751SOL    HW275048   8.892   1.451   5.145
23752SOL     OW75049   7.886   0.392   5.223
23752SOL    HW175050   7.968   0.336   5.232
23752SOL    HW275051   7.805   0.334   5.227
23753SOL     OW75052   9.051   0.447   4.461
23753SOL    HW175053   8.977   0.493   4.411
23753SOL    HW275054   9.102   0.515   4.514
23754SOL     OW75055   7.679   1.713   4.207
23754SOL    HW175056   7.713   1.790   4.261
23754SOL    HW275057   7.723   1.713   4.117
23755SOL     OW75058   8.575   1.341   5.414
23755SOL    HW175059   8.622   1.341   5.502
23755SOL    HW275060   8.527   1.254   5.403
23756SOL     OW75061   7.678   1.434   4.262
23756SOL    HW175062   7.652   1.530   4.262
23756SOL    HW275063   7.607   1.380   4.307
23757SOL     OW75064   7.688   1.091   4.610
23757SOL    HW175065   7.702   1.007   4.662
23757SOL    HW275066   7.633   1.155   4.665
23758SOL     OW75067   8.068   1.786   5.163
23758SOL    HW175068   7.976   1.769   5.198
23758SOL    HW275069   8.096   1.878   5.189
23759SOL     OW75070   8.054   0.964   3.847
23759SOL    HW175071   8.061   1.048   3.793
23759SOL    HW275072   8.100   0.977   3.935
23760SOL     OW75073   9.042   0.114   5.204
23760SOL    HW175074   9.024   0.181   5.132
23760SOL    HW275075   9.039   0.160   5.293
23761SOL     OW75076   7.570   0.643   4.287
23761SOL    HW175077   7.525   0.555   4.304
23761SOL    HW275078   7.569   0.697   4.371
23762SOL     OW75079   9.290   1.767   4.083
23762SOL    HW175080   9.344   1.738   4.163
23762SOL    HW275081   9.320   1.857   4.054
23763SOL     OW75082   7.475   1.596   3.841
23763SOL    HW175083   7.456   1.500   3.862
23763SOL    HW275084   7.442   1.654   3.916
23764SOL     OW75085   9.137   0.922   4.336
23764SOL    HW175086   9.232   0.893   4.344
23764SOL    HW275087   9.129   0.987   4.261
23765SOL     OW75088   9.089   1.108   4.156
23765SOL    HW175089   9.175   1.110   4.104
23765SOL    HW275090   9.103   1.155   4.244
23766SOL     OW75091   7.561   0.737   5.321
23766SOL    HW175092   7.649   0.724   5.366
23766SOL    HW275093   7.548   0.834   5.299
23767SOL     OW75094   8.061   1.365   4.450
23767SOL    HW175095   8.012   1.278   4.459
23767SOL    HW275096   8.038   1.408   4.363
23768SOL     OW75097   8.741   1.228   5.147
23768SOL    HW175098   8.778   1.155   5.089
23768SOL    HW275099   8.793   1.233   5.232
23769SOL     OW75100   8.257   0.004   4.226
23769SOL    HW175101   8.297   0.095   4.217
23769SOL    HW275102   8.157   0.012   4.232
23770SOL     OW75103   7.645   0.976   4.988
23770SOL    HW175104   7.734   0.931   4.974
23770SOL    HW275105   7.572   0.911   4.969
23771SOL     OW75106   8.973   0.999   3.914
23771SOL    HW175107   8.910   0.923   3.927
23771SOL    HW275108   9.021   1.017   4.000
23772SOL     OW75109   8.635   1.792   5.340
23772SOL    HW175110   8.659   1.852   5.264
23772SOL    HW275111   8.642   1.697   5.310
23773SOL     OW75112   7.765   0.251   5.525
23773SOL    HW175113   7.836   0.322   5.531
23773SOL    HW275114   7.677   0.290   5.553
23774SOL     OW75115   8.914   1.417   4.677
23774SOL    HW175116   8.855   1.423   4.757
23774SOL    HW275117   8.899   1.329   4.631
23775SOL     OW75118   9.115   1.714   4.296
23775SOL    HW175119   9.074   1.691   4.208
23775SOL    HW275120   9.097   1.640   4.361
23776SOL     OW75121   8.046   0.729   3.994
23776SOL    HW175122   8.070   0.798   3.926
23776SOL    HW275123   7.968   0.762   4.048
23777SOL     OW75124   8.729   0.345   4.668
23777SOL    HW175125   8.643   0.295   4.655
23777SOL    HW275126   8.791   0.291   4.724
23778SOL     OW75127   9.024   1.662   4.031
23778SOL    HW175128   9.113   1.708   4.034
23778SOL    HW275129   9.003   1.638   3.936
23779SOL     OW75130   8.255   0.605   5.189
23779SOL    HW175131   8.208   0.602   5.278
23779SOL    HW275132   8.204   0.550   5.123
23780SOL     OW75133   8.842   0.469   5.398
23780SOL    HW175134   8.822   0.512   5.486
23780SOL    HW275135   8.920   0.407   5.407
23781SOL     OW75136   8.421   0.890   5.296
23781SOL    HW175137   8.467   0.806   5.267
23781SOL    HW275138   8.365   0.924   5.221
23782SOL     OW75139   8.439   0.410   4.966
23782SOL    HW175140   8.362   0.444   5.020
23782SOL    HW275141   8.405   0.359   4.887
23783SOL     OW75142   8.489   0.701   4.153
23783SOL    HW175143   8.515   0.697   4.249
23783SOL    HW275144   8.404   0.650   4.139
23784SOL     OW75145   7.524   0.811   4.513
23784SOL    HW175146   7.623   0.799   4.522
23784SOL    HW275147   7.500   0.906   4.534
23785SOL     OW75148   7.578   1.821   5.295
23785SOL    HW175149   7.568   1.806   5.394
23785SOL    HW275150   7.492   1.857   5.259
23786SOL     OW75151   8.313   0.348   3.919
23786SOL    HW175152   8.372   0.411   3.870
23786SOL    HW275153   8.332   0.254   3.890
23787SOL     OW75154   9.167   0.585   5.555
23787SOL    HW175155   9.141   0.674   5.519
23787SOL    HW275156   9.165   0.517   5.482
23788SOL     OW75157   8.810   1.144   4.269
23788SOL    HW175158   8.893   1.115   4.221
23788SOL    HW275159   8.761   1.211   4.213
23789SOL     OW75160   7.998   0.196   4.609
23789SOL    HW175161   7.993   0.191   4.709
23789SOL    HW275162   8.000   0.292   4.580
23790SOL     OW75163   8.456   1.456   4.201
23790SOL    HW175164   8.410   1.528   4.149
23790SOL    HW275165   8.452   1.476   4.299
23791SOL     OW75166   7.799   1.801   4.577
23791SOL    HW175167   7.849   1.715   4.583
23791SOL    HW275168   7.864   1.878   4.574
23792SOL     OW75169   8.675   1.550   5.230
23792SOL    HW175170   8.681   1.473   5.294
23792SOL    HW275171   8.623   1.524   5.150
23793SOL     OW75172   7.769   0.943   3.966
23793SOL    HW175173   7.851   0.982   3.924
23793SOL    HW275174   7.742   0.861   3.917
23794SOL     OW75175   8.906   0.735   4.452
23794SOL    HW175176   8.901   0.670   4.527
23794SOL    HW275177   8.986   0.794   4.465
23795SOL     OW75178   8.559   1.776   3.961
23795SOL    HW175179   8.499   1.714   4.011
23795SOL    HW275180   8.590   1.732   3.876
23796SOL     OW75181   7.650   0.285   5.222
23796SOL    HW175182   7.570   0.345   5.209
23796SOL    HW275183   7.640   0.236   5.308
23797SOL     OW75184   9.080   1.377   3.805
23797SOL    HW175185   9.048   1.471   3.795
23797SOL    HW275186   9.004   1.314   3.793
23798SOL     OW75187   7.912   1.743   4.047
23798SOL    HW175188   7.945   1.782   4.133
23798SOL    HW275189   7.988   1.736   3.982
23799SOL     OW75190   8.848   0.107   4.150
23799SOL    HW175191   8.824   0.070   4.060
23799SOL    HW275192   8.947   0.123   4.154
23800SOL     OW75193   7.697   1.785   4.965
23800SOL    HW175194   7.754   1.720   5.015
23800SOL    HW275195   7.681   1.752   4.872
23801SOL     OW75196   8.388   1.698   4.628
23801SOL    HW175197   8.468   1.641   4.649
23801SOL    HW275198   8.339   1.658   4.551
23802SOL     OW75199   7.830   0.700   4.204
23802SOL    HW175200   7.875   0.610   4.201
23802SOL    HW275201   7.736   0.689   4.237
23803SOL     OW75202   8.995   0.222   5.453
23803SOL    HW175203   8.990   0.259   5.545
23803SOL    HW275204   8.923   0.153   5.441
23804SOL     OW75205   8.229   0.264   5.473
23804SOL    HW175206   8.296   0.203   5.516
23804SOL    HW275207   8.156   0.283   5.538
23805SOL     OW75208   8.336   1.514   4.919
23805SOL    HW175209   8.313   1.489   4.825
23805SOL    HW275210   8.397   1.445   4.958
23806SOL     OW75211   8.799   0.590   5.157
23806SOL    HW175212   8.827   0.547   5.242
23806SOL    HW275213   8.824   0.686   5.158
23807SOL     OW75214   8.251   1.402   4.648
23807SOL    HW175215   8.341   1.416   4.606
23807SOL    HW275216   8.180   1.404   4.577
23808SOL     OW75217   8.370   0.503   4.623
23808SOL    HW175218   8.345   0.494   4.527
23808SOL    HW275219   8.418   0.421   4.654
23809SOL     OW75220   7.987   0.064   4.236
23809SOL    HW175221   7.906   0.065   4.294
23809SOL    HW275222   7.990   0.147   4.181
23810SOL     OW75223   8.882   1.188   3.765
23810SOL    HW175224   8.914   1.112   3.822
23810SOL    HW275225   8.790   1.215   3.795
23811SOL     OW75226   7.745   0.035   3.895
23811SOL    HW175227   7.794   0.119   3.874
23811SOL    HW275228   7.807  -0.030   3.940
23812SOL     OW75229   8.383   0.236   4.204
23812SOL    HW175230   8.335   0.277   4.126
23812SOL    HW275231   8.482   0.234   4.185
23813SOL     OW75232   8.524   0.683   5.188
23813SOL    HW175233   8.444   0.622   5.191
23813SOL    HW275234   8.605   0.630   5.164
23814SOL     OW75235   8.675   1.570   4.517
23814SOL    HW175236   8.696   1.644   4.452
23814SOL    HW275237   8.743   1.570   4.590
23815SOL     OW75238   7.907   1.152   4.465
23815SOL    HW175239   7.836   1.125   4.530
23815SOL    HW275240   7.881   1.124   4.372
23816SOL     OW75241   8.719   1.797   4.315
23816SOL    HW175242   8.763   1.861   4.251
23816SOL    HW275243   8.669   1.849   4.385
23817SOL     OW75244   8.480   0.549   3.740
23817SOL    HW175245   8.439   0.631   3.701
23817SOL    HW275246   8.544   0.575   3.813
23818SOL     OW75247   7.526   0.556   5.110
23818SOL    HW175248   7.618   0.555   5.069
23818SOL    HW275249   7.520   0.630   5.177
23819SOL     OW75250   8.009   0.222   4.871
23819SOL    HW175251   8.047   0.138   4.908
23819SOL    HW275252   7.921   0.241   4.915
23820SOL     OW75253   8.314   0.454   4.366
23820SOL    HW175254   8.282   0.526   4.304
23820SOL    HW275255   8.338   0.373   4.313
23821SOL     OW75256   8.465   0.039   4.477
23821SOL    HW175257   8.393   0.044   4.408
23821SOL    HW275258   8.441  -0.030   4.546
23822SOL     OW75259   8.877   1.173   4.591
23822SOL    HW175260   8.822   1.089   4.584
23822SOL    HW275261   8.903   1.202   4.499
23823SOL     OW75262   8.914   0.590   4.716
23823SOL    HW175263   8.884   0.495   4.723
23823SOL    HW275264   8.987   0.606   4.782
23824SOL     OW75265   9.305   0.833   4.101
23824SOL    HW175266   9.347   0.769   4.165
23824SOL    HW275267   9.267   0.782   4.023
23825SOL     OW75268   7.936   1.385   3.898
23825SOL    HW175269   7.849   1.370   3.945
23825SOL    HW275270   7.919   1.411   3.803
23826SOL     OW75271   9.112   1.280   4.381
23826SOL    HW175272   9.211   1.288   4.395
23826SOL    HW275273   9.067   1.364   4.412
23827SOL     OW75274   8.838   0.575   3.802
23827SOL    HW175275   8.784   0.554   3.883
23827SOL    HW275276   8.929   0.534   3.811
23828SOL     OW75277   7.975   0.256   4.052
23828SOL    HW175278   8.002   0.197   3.977
23828SOL    HW275279   7.975   0.351   4.021
23829SOL     OW75280   9.202   1.223   5.312
23829SOL    HW175281   9.293   1.184   5.299
23829SOL    HW275282   9.210   1.319   5.336
23830SOL     OW75283   8.512   1.347   5.064
23830SOL    HW175284   8.432   1.324   5.119
23830SOL    HW275285   8.595   1.321   5.113
23831SOL     OW75286   9.040   1.629   5.349
23831SOL    HW175287   9.067   1.663   5.259
23831SOL    HW275288   9.119   1.591   5.395
23832SOL     OW75289   8.559   1.195   4.824
23832SOL    HW175290   8.519   1.239   4.905
23832SOL    HW275291   8.518   1.232   4.741
23833SOL     OW75292   9.086   1.099   4.803
23833SOL    HW175293   9.091   1.180   4.862
23833SOL    HW275294   9.000   1.101   4.752
23834SOL     OW75295   8.363   0.089   5.126
23834SOL    HW175296   8.388   0.069   5.031
23834SOL    HW275297   8.435   0.145   5.168
23835SOL     OW75298   8.428   1.116   5.443
23835SOL    HW175299   8.329   1.122   5.453
23835SOL    HW275300   8.451   1.036   5.387
23836SOL     OW75301   8.153   1.050   4.092
23836SOL    HW175302   8.139   1.057   4.191
23836SOL    HW275303   8.237   0.999   4.074
23837SOL     OW75304   7.858   0.813   4.975
23837SOL    HW175305   7.944   0.825   5.025
23837SOL    HW275306   7.816   0.726   5.002
23838SOL     OW75307   8.722   0.386   4.986
23838SOL    HW175308   8.743   0.460   5.050
23838SOL    HW275309   8.633   0.403   4.943
23839SOL     OW75310   7.512   1.564   5.055
23839SOL    HW175311   7.466   1.646   5.021
23839SOL    HW275312   7.610   1.583   5.064
23840SOL     OW75313   7.815   1.100   4.225
23840SOL    HW175314   7.808   1.183   4.169
23840SOL    HW275315   7.819   1.020   4.165
23841SOL     OW75316   8.014   0.537   4.589
23841SOL    HW175317   8.026   0.603   4.515
23841SOL    HW275318   8.060   0.571   4.672
23842SOL     OW75319   8.700   1.348   4.112
23842SOL    HW175320   8.750   1.425   4.152
23842SOL    HW275321   8.605   1.350   4.144
23843SOL     OW75322   8.720   1.445   4.866
23843SOL    HW175323   8.767   1.458   4.953
23843SOL    HW275324   8.654   1.371   4.875
23844SOL     OW75325   9.030   0.639   4.196
23844SOL    HW175326   8.999   0.700   4.269
23844SOL    HW275327   9.080   0.691   4.127
23845SOL     OW75328   7.802   1.510   5.053
23845SOL    HW175329   7.781   1.466   4.966
23845SOL    HW275330   7.899   1.536   5.056
23846SOL     OW75331   7.850   0.751   5.322
23846SOL    HW175332   7.918   0.806   5.275
23846SOL    HW275333   7.890   0.663   5.349
23847SOL     OW75334   9.035   0.779   5.394
23847SOL    HW175335   8.943   0.817   5.389
23847SOL    HW275336   9.095   0.826   5.329
23848SOL     OW75337   8.461   0.105   5.494
23848SOL    HW175338   8.467   0.190   5.442
23848SOL    HW275339   8.493   0.029   5.437
23849SOL     OW75340   7.952   0.050   5.464
23849SOL    HW175341   7.910  -0.007   5.394
23849SOL    HW275342   7.886   0.119   5.496
23850SOL     OW75343   8.021   0.870   4.753
23850SOL    HW175344   8.065   0.959   4.744
23850SOL    HW275345   7.958   0.870   4.830
23851SOL     OW75346   8.808   0.862   4.769
23851SOL    HW175347   8.733   0.862   4.703
23851SOL    HW275348   8.845   0.770   4.778
23852SOL     OW75349   8.657   0.525   3.999
23852SOL    HW175350   8.670   0.441   4.053
23852SOL    HW275351   8.628   0.599   4.059
23853SOL     OW75352   7.755   0.213   4.955
23853SOL    HW175353   7.732   0.250   5.045
23853SOL    HW275354   7.725   0.118   4.949
23854SOL     OW75355   7.485   1.310   5.006
23854SOL    HW175356   7.538   1.261   5.074
23854SOL    HW275357   7.507   1.408   5.011
23855SOL     OW75358   8.180   0.634   4.788
23855SOL    HW175359   8.239   0.608   4.712
23855SOL    HW275360   8.152   0.730   4.777
23856SOL     OW75361   9.176   0.935   5.578
23856SOL    HW175362   9.130   0.928   5.489
23856SOL    HW275363   9.114   0.979   5.644
23857SOL     OW75364   7.755   0.063   4.342
23857SOL    HW175365   7.744   0.157   4.375
23857SOL    HW275366   7.750   0.000   4.419
23858SOL     OW75367   9.070   0.367   4.098
23858SOL    HW175368   9.072   0.291   4.162
23858SOL    HW275369   9.022   0.444   4.138
23859SOL     OW75370   8.471   0.766   4.690
23859SOL    HW175371   8.486   0.787   4.786
23859SOL    HW275372   8.441   0.671   4.681
23860SOL     OW75373   8.428   1.573   5.424
23860SOL    HW175374   8.408   1.617   5.336
23860SOL    HW275375   8.467   1.482   5.408
23861SOL     OW75376   9.307   1.518   5.329
23861SOL    HW175377   9.321   1.545   5.234
23861SOL    HW275378   9.390   1.540   5.382
23862SOL     OW75379   7.798   0.898   5.528
23862SOL    HW175380   7.874   0.942   5.576
23862SOL    HW275381   7.833   0.851   5.446
23863SOL     OW75382   8.988   0.274   3.849
23863SOL    HW175383   8.927   0.199   3.872
23863SOL    HW275384   9.010   0.326   3.932
23864SOL     OW75385   8.751   0.838   3.766
23864SOL    HW175386   8.785   0.745   3.781
23864SOL    HW275387   8.769   0.865   3.671
23865SOL     OW75388   8.516   1.333   4.573
23865SOL    HW175389   8.523   1.249   4.518
23865SOL    HW275390   8.578   1.402   4.537
23866SOL     OW75391   7.767   0.810   4.673
23866SOL    HW175392   7.860   0.846   4.678
23866SOL    HW275393   7.761   0.725   4.725
23867SOL     OW75394   7.787   0.509   4.730
23867SOL    HW175395   7.735   0.426   4.713
23867SOL    HW275396   7.864   0.514   4.666
23868SOL     OW75397   8.586   0.380   5.402
23868SOL    HW175398   8.541   0.443   5.466
23868SOL    HW275399   8.679   0.411   5.385
23869SOL     OW75400   8.608   0.207   5.201
23869SOL    HW175401   8.608   0.271   5.278
23869SOL    HW275402   8.636   0.255   5.118
23870SOL     OW75403   7.456   1.326   3.924
23870SOL    HW175404   7.363   1.347   3.893
23870SOL    HW275405   7.466   1.227   3.937
23871SOL     OW75406   7.536   1.801   4.651
23871SOL    HW175407   7.494   1.715   4.624
23871SOL    HW275408   7.630   1.804   4.617
23872SOL     OW75409   7.952   1.568   4.634
23872SOL    HW175410   8.018   1.642   4.643
23872SOL    HW275411   7.996   1.489   4.592
23873SOL     OW75412   8.450   0.796   4.962
23873SOL    HW175413   8.491   0.764   5.048
23873SOL    HW275414   8.354   0.769   4.959
23874SOL     OW75415   7.488   0.544   4.838
23874SOL    HW175416   7.573   0.511   4.797
23874SOL    HW275417   7.501   0.559   4.936
23875SOL     OW75418   7.637   0.520   5.446
23875SOL    HW175419   7.696   0.480   5.376
23875SOL    HW275420   7.579   0.591   5.405
23876SOL     OW75421   8.817   0.950   5.384
23876SOL    HW175422   8.856   1.039   5.404
23876SOL    HW275423   8.827   0.930   5.287
23877SOL     OW75424   8.263   0.572   4.049
23877SOL    HW175425   8.270   0.483   4.003
23877SOL    HW275426   8.169   0.606   4.041
23878SOL     OW75427   9.105   0.604   4.930
23878SOL    HW175428   9.067   0.535   4.992
23878SOL    HW275429   9.187   0.568   4.886
23879SOL     OW75430   8.119   0.464   4.993
23879SOL    HW175431   8.085   0.375   4.963
23879SOL    HW275432   8.145   0.518   4.913
23880SOL     OW75433   8.378   1.678   5.189
23880SOL    HW175434   8.354   1.660   5.094
23880SOL    HW275435   8.408   1.772   5.199
23881SOL     OW75436   7.921   0.500   3.915
23881SOL    HW175437   7.982   0.580   3.919
23881SOL    HW275438   7.826   0.531   3.922
23882SOL     OW75439   7.607   1.137   5.190
23882SOL    HW175440   7.629   1.076   5.266
23882SOL    HW275441   7.617   1.088   5.104
23883SOL     OW75442   8.795   1.059   4.958
23883SOL    HW175443   8.819   0.996   4.884
23883SOL    HW275444   8.705   1.099   4.940
23884SOL     OW75445   8.750   0.855   4.033
23884SOL    HW175446   8.664   0.824   4.075
23884SOL    HW275447   8.746   0.841   3.934
23885SOL     OW75448   9.207   1.747   4.878
23885SOL    HW175449   9.268   1.777   4.805
23885SOL    HW275450   9.169   1.658   4.856
23886SOL     OW75451   8.700   1.731   4.852
23886SOL    HW175452   8.784   1.736   4.798
23886SOL    HW275453   8.677   1.635   4.870
23887SOL     OW75454   7.531   1.258   4.746
23887SOL    HW175455   7.526   1.257   4.846
23887SOL    HW275456   7.448   1.217   4.708
23888SOL     OW75457   8.136   1.662   5.440
23888SOL    HW175458   8.080   1.743   5.449
23888SOL    HW275459   8.188   1.666   5.354
23889SOL     OW75460   9.174   0.135   4.247
23889SOL    HW175461   9.247   0.118   4.180
23889SOL    HW275462   9.143   0.048   4.285
23890SOL     OW75463   8.836   1.573   4.201
23890SOL    HW175464   8.903   1.585   4.127
23890SOL    HW275465   8.796   1.662   4.224
23891SOL     OW75466   7.578   1.794   5.575
23891SOL    HW175467   7.537   1.720   5.628
23891SOL    HW275468   7.642   1.845   5.633
23892SOL     OW75469   8.728   0.927   4.396
23892SOL    HW175470   8.788   0.846   4.398
23892SOL    HW275471   8.768   0.996   4.336
23893SOL     OW75472   8.278   1.273   5.146
23893SOL    HW175473   8.273   1.306   5.241
23893SOL    HW275474   8.192   1.292   5.100
23894SOL     OW75475   8.120   1.616   3.878
23894SOL    HW175476   8.129   1.626   3.779
23894SOL    HW275477   8.080   1.527   3.899
23895SOL     OW75478   9.098   1.720   5.118
23895SOL    HW175479   9.151   1.730   5.034
23895SOL    HW275480   9.071   1.810   5.152
23896SOL     OW75481   9.289   0.175   4.687
23896SOL    HW175482   9.328   0.090   4.651
23896SOL    HW275483   9.191   0.177   4.668
23897SOL     OW75484   7.711   0.326   4.444
23897SOL    HW175485   7.632   0.377   4.410
23897SOL    HW275486   7.702   0.311   4.542
23898SOL     OW75487   8.642   1.612   3.755
23898SOL    HW175488   8.648   1.519   3.792
23898SOL    HW275489   8.583   1.612   3.675
23899SOL     OW75490   8.270   1.002   5.096
23899SOL    HW175491   8.310   1.001   5.004
23899SOL    HW275492   8.280   1.094   5.136
23900SOL     OW75493   8.364   0.910   4.015
23900SOL    HW175494   8.427   0.948   3.947
23900SOL    HW275495   8.404   0.827   4.054
23901SOL     OW75496   8.952   1.607   3.768
23901SOL    HW175497   8.860   1.644   3.775
23901SOL    HW275498   8.990   1.627   3.678
23902SOL     OW75499   7.820   1.288   5.214
23902SOL    HW175500   7.807   1.381   5.180
23902SOL    HW275501   7.736   1.236   5.201
23903SOL     OW75502   9.062   1.292   5.013
23903SOL    HW175503   9.122   1.295   5.093
23903SOL    HW275504   8.987   1.356   5.026
23904SOL     OW75505   8.487   1.098   4.420
23904SOL    HW175506   8.417   1.051   4.474
23904SOL    HW275507   8.546   1.030   4.377
23905SOL     OW75508   8.462   0.236   4.695
23905SOL    HW175509   8.454   0.200   4.602
23905SOL    HW275510   8.460   0.160   4.760
23906SOL     OW75511   8.038   1.487   4.215
23906SOL    HW175512   8.080   1.429   4.145
23906SOL    HW275513   7.994   1.566   4.171
23907SOL     OW75514   9.157   0.385   5.105
23907SOL    HW175515   9.230   0.454   5.109
23907SOL    HW275516   9.185   0.310   5.046
23908SOL     OW75517   7.703   1.348   4.014
23908SOL    HW175518   7.607   1.349   3.987
23908SOL    HW275519   7.715   1.401   4.098
23909SOL     OW75520   7.553   1.013   5.450
23909SOL    HW175521   7.476   0.980   5.504
23909SOL    HW275522   7.638   0.983   5.492
23910SOL     OW75523   8.120   0.203   5.213
23910SOL    HW175524   8.210   0.187   5.173
23910SOL    HW275525   8.128   0.208   5.312
23911SOL     OW75526   7.523   0.345   3.757
23911SOL    HW175527   7.431   0.317   3.728
23911SOL    HW275528   7.554   0.422   3.701
23912SOL     OW75529   8.888   0.856   5.122
23912SOL    HW175530   8.831   0.908   5.059
23912SOL    HW275531   8.984   0.868   5.098
23913SOL     OW75532   7.520   0.166   4.042
23913SOL    HW175533   7.503   0.249   3.988
23913SOL    HW275534   7.610   0.129   4.020
23914SOL     OW75535   8.631   1.335   3.843
23914SOL    HW175536   8.532   1.324   3.845
23914SOL    HW275537   8.665   1.350   3.936
23915SOL     OW75538   8.061   0.842   5.155
23915SOL    HW175539   8.117   0.923   5.138
23915SOL    HW275540   8.120   0.762   5.158
23916SOL     OW75541   8.941   1.767   4.683
23916SOL    HW175542   8.974   1.831   4.614
23916SOL    HW275543   9.007   1.761   4.758
23917SOL     OW75544   8.164   0.565   5.432
23917SOL    HW175545   8.183   0.630   5.506
23917SOL    HW275546   8.224   0.485   5.441
23918SOL     OW75547   8.898   1.220   5.357
23918SOL    HW175548   8.889   1.210   5.456
23918SOL    HW275549   8.994   1.213   5.331
23919SOL     OW75550   7.838   1.741   5.284
23919SOL    HW175551   7.747   1.782   5.282
23919SOL    HW275552   7.831   1.647   5.316
23920SOL     OW75553   9.122   0.883   4.978
23920SOL    HW175554   9.095   0.794   4.941
23920SOL    HW275555   9.123   0.951   4.905
23921SOL     OW75556   8.673   0.325   4.173
23921SOL    HW175557   8.738   0.251   4.162
23921SOL    HW275558   8.693   0.375   4.257
23922SOL     OW75559   8.042   0.745   4.376
23922SOL    HW175560   8.092   0.830   4.357
23922SOL    HW275561   7.954   0.747   4.328
23923SOL     OW75562   9.225   0.342   5.366
23923SOL    HW175563   9.208   0.373   5.272
23923SOL    HW275564   9.141   0.305   5.404
23924SOL     OW75565   9.178   0.934   5.241
23924SOL    HW175566   9.216   1.025   5.256
23924SOL    HW275567   9.170   0.917   5.142
23925SOL     OW75568   8.307   1.374   3.740
23925SOL    HW175569   8.261   1.389   3.828
23925SOL    HW275570   8.351   1.459   3.710
23926SOL     OW75571   8.109   1.790   4.677
23926SOL    HW175572   8.063   1.878   4.664
23926SOL    HW275573   8.208   1.802   4.670
23927SOL     OW75574   8.307   0.956   4.585
23927SOL    HW175575   8.361   0.887   4.633
23927SOL    HW275576   8.275   1.025   4.651
23928SOL     OW75577   8.531   0.984   3.811
23928SOL    HW175578   8.508   1.037   3.729
23928SOL    HW275579   8.612   0.928   3.792
23929SOL     OW75580   9.309   1.569   4.575
23929SOL    HW175581   9.238   1.557   4.505
23929SOL    HW275582   9.310   1.490   4.635
23930SOL     OW75583   7.527   1.240   4.377
23930SOL    HW175584   7.526   1.193   4.465
23930SOL    HW275585   7.609   1.212   4.326
23931SOL     OW75586   8.120   1.391   5.348
23931SOL    HW175587   8.042   1.341   5.386
23931SOL    HW275588   8.117   1.486   5.379
23932SOL     OW75589   9.272   0.192   4.951
23932SOL    HW175590   9.268   0.102   4.995
23932SOL    HW275591   9.275   0.181   4.852
23933SOL     OW75592   7.876   0.424   4.244
23933SOL    HW175593   7.906   0.352   4.182
23933SOL    HW275594   7.837   0.384   4.327
23934SOL     OW75595   9.153   1.487   4.828
23934SOL    HW175596   9.060   1.462   4.801
23934SOL    HW275597   9.179   1.437   4.910
23935SOL     OW75598   7.765   0.547   5.004
23935SOL    HW175599   7.803   0.488   5.076
23935SOL    HW275600   7.805   0.521   4.916
23936SOL     OW75601   8.260   1.586   4.411
23936SOL    HW175602   8.292   1.596   4.317
23936SOL    HW275603   8.181   1.524   4.413
23937SOL     OW75604   8.872   0.214   4.836
23937SOL    HW175605   8.924   0.149   4.891
23937SOL    HW275606   8.823   0.277   4.897
23938SOL     OW75607   8.449   0.034   4.878
23938SOL    HW175608   8.386  -0.038   4.847
23938SOL    HW275609   8.542  -0.002   4.878
23939SOL     OW75610   8.218   1.330   4.025
23939SOL    HW175611   8.172   1.243   4.042
23939SOL    HW275612   8.309   1.327   4.066
23940SOL     OW75613   8.066   1.567   5.008
23940SOL    HW175614   8.061   1.649   5.065
23940SOL    HW275615   8.155   1.564   4.963
23941SOL     OW75616   8.800   0.052   3.892
23941SOL    HW175617   8.835   0.011   3.808
23941SOL    HW275618   8.710   0.014   3.912
23942SOL     OW75619   8.748   0.453   4.415
23942SOL    HW175620   8.689   0.533   4.419
23942SOL    HW275621   8.763   0.418   4.508
23943SOL     OW75622   9.041   0.221   4.606
23943SOL    HW175623   8.957   0.220   4.660
23943SOL    HW275624   9.043   0.304   4.550
23944SOL     OW75625   7.487   1.077   4.024
23944SOL    HW175626   7.586   1.066   4.015
23944SOL    HW275627   7.447   0.991   4.056
23945SOL     OW75628   8.323   1.646   4.061
23945SOL    HW175629   8.246   1.611   4.007
23945SOL    HW275630   8.291   1.717   4.123
23946SOL     OW75631   7.678   0.628   5.699
23946SOL    HW175632   7.585   0.626   5.736
23946SOL    HW275633   7.679   0.589   5.607
23947SOL     OW75634   7.673   0.275   6.582
23947SOL    HW175635   7.708   0.258   6.674
23947SOL    HW275636   7.585   0.230   6.570
23948SOL     OW75637   7.467   0.368   6.233
23948SOL    HW175638   7.385   0.411   6.272
23948SOL    HW275639   7.439   0.295   6.170
23949SOL     OW75640   8.017   1.275   6.751
23949SOL    HW175641   7.924   1.268   6.714
23949SOL    HW275642   8.028   1.364   6.795
23950SOL     OW75643   9.003   1.511   6.289
23950SOL    HW175644   8.946   1.495   6.370
23950SOL    HW275645   8.944   1.521   6.209
23951SOL     OW75646   8.583   0.703   6.303
23951SOL    HW175647   8.640   0.781   6.278
23951SOL    HW275648   8.523   0.729   6.379
23952SOL     OW75649   9.203   0.607   5.817
23952SOL    HW175650   9.191   0.594   5.718
23952SOL    HW275651   9.173   0.526   5.866
23953SOL     OW75652   8.216   1.144   6.609
23953SOL    HW175653   8.138   1.161   6.669
23953SOL    HW275654   8.250   1.231   6.573
23954SOL     OW75655   8.298   0.798   7.409
23954SOL    HW175656   8.294   0.874   7.474
23954SOL    HW275657   8.320   0.834   7.318
23955SOL     OW75658   8.133   1.012   6.251
23955SOL    HW175659   8.202   0.996   6.321
23955SOL    HW275660   8.060   1.069   6.289
23956SOL     OW75661   8.134   1.161   7.389
23956SOL    HW175662   8.194   1.240   7.403
23956SOL    HW275663   8.048   1.192   7.348
23957SOL     OW75664   7.783   1.435   6.647
23957SOL    HW175665   7.705   1.404   6.594
23957SOL    HW275666   7.841   1.493   6.590
23958SOL     OW75667   8.908   1.505   6.925
23958SOL    HW175668   8.932   1.599   6.951
23958SOL    HW275669   8.892   1.451   7.007
23959SOL     OW75670   7.886   0.392   7.085
23959SOL    HW175671   7.968   0.336   7.094
23959SOL    HW275672   7.805   0.334   7.089
23960SOL     OW75673   9.051   0.447   6.323
23960SOL    HW175674   8.977   0.493   6.273
23960SOL    HW275675   9.102   0.515   6.376
23961SOL     OW75676   7.688   1.091   6.472
23961SOL    HW175677   7.702   1.007   6.524
23961SOL    HW275678   7.633   1.155   6.527
23962SOL     OW75679   8.068   1.786   7.025
23962SOL    HW175680   7.976   1.769   7.060
23962SOL    HW275681   8.096   1.878   7.051
23963SOL     OW75682   8.054   0.964   5.709
23963SOL    HW175683   8.061   1.048   5.655
23963SOL    HW275684   8.100   0.977   5.797
23964SOL     OW75685   9.042   0.114   7.066
23964SOL    HW175686   9.024   0.181   6.994
23964SOL    HW275687   9.039   0.160   7.155
23965SOL     OW75688   7.570   0.643   6.149
23965SOL    HW175689   7.525   0.555   6.166
23965SOL    HW275690   7.569   0.697   6.233
23966SOL     OW75691   9.290   1.767   5.945
23966SOL    HW175692   9.344   1.738   6.025
23966SOL    HW275693   9.320   1.857   5.916
23967SOL     OW75694   7.475   1.596   5.703
23967SOL    HW175695   7.456   1.500   5.724
23967SOL    HW275696   7.442   1.654   5.778
23968SOL     OW75697   9.137   0.922   6.198
23968SOL    HW175698   9.232   0.893   6.206
23968SOL    HW275699   9.129   0.987   6.123
23969SOL     OW75700   9.089   1.108   6.018
23969SOL    HW175701   9.175   1.110   5.966
23969SOL    HW275702   9.103   1.155   6.106
23970SOL     OW75703   8.061   1.365   6.312
23970SOL    HW175704   8.012   1.278   6.321
23970SOL    HW275705   8.038   1.408   6.225
23971SOL     OW75706   8.741   1.228   7.009
23971SOL    HW175707   8.778   1.155   6.951
23971SOL    HW275708   8.793   1.233   7.094
23972SOL     OW75709   8.257   0.004   6.088
23972SOL    HW175710   8.297   0.095   6.079
23972SOL    HW275711   8.157   0.012   6.094
23973SOL     OW75712   8.973   0.999   5.776
23973SOL    HW175713   8.910   0.923   5.789
23973SOL    HW275714   9.021   1.017   5.862
23974SOL     OW75715   7.765   0.251   7.387
23974SOL    HW175716   7.836   0.322   7.393
23974SOL    HW275717   7.677   0.290   7.415
23975SOL     OW75718   8.914   1.417   6.539
23975SOL    HW175719   8.855   1.423   6.619
23975SOL    HW275720   8.899   1.329   6.493
23976SOL     OW75721   9.115   1.714   6.158
23976SOL    HW175722   9.074   1.691   6.070
23976SOL    HW275723   9.097   1.640   6.223
23977SOL     OW75724   8.046   0.729   5.856
23977SOL    HW175725   8.070   0.798   5.788
23977SOL    HW275726   7.968   0.762   5.910
23978SOL     OW75727   8.729   0.345   6.530
23978SOL    HW175728   8.643   0.295   6.517
23978SOL    HW275729   8.791   0.291   6.586
23979SOL     OW75730   9.024   1.662   5.893
23979SOL    HW175731   9.113   1.708   5.896
23979SOL    HW275732   9.003   1.638   5.798
23980SOL     OW75733   8.255   0.605   7.051
23980SOL    HW175734   8.208   0.602   7.140
23980SOL    HW275735   8.204   0.550   6.985
23981SOL     OW75736   8.842   0.469   7.260
23981SOL    HW175737   8.822   0.512   7.348
23981SOL    HW275738   8.920   0.407   7.269
23982SOL     OW75739   8.421   0.890   7.158
23982SOL    HW175740   8.467   0.806   7.129
23982SOL    HW275741   8.365   0.924   7.083
23983SOL     OW75742   8.439   0.410   6.828
23983SOL    HW175743   8.362   0.444   6.882
23983SOL    HW275744   8.405   0.359   6.749
23984SOL     OW75745   8.489   0.701   6.015
23984SOL    HW175746   8.515   0.697   6.111
23984SOL    HW275747   8.404   0.650   6.001
23985SOL     OW75748   7.524   0.811   6.375
23985SOL    HW175749   7.623   0.799   6.384
23985SOL    HW275750   7.500   0.906   6.396
23986SOL     OW75751   7.578   1.821   7.157
23986SOL    HW175752   7.568   1.806   7.256
23986SOL    HW275753   7.492   1.857   7.121
23987SOL     OW75754   8.313   0.348   5.781
23987SOL    HW175755   8.372   0.411   5.732
23987SOL    HW275756   8.332   0.254   5.752
23988SOL     OW75757   9.167   0.585   7.417
23988SOL    HW175758   9.141   0.674   7.381
23988SOL    HW275759   9.165   0.517   7.344
23989SOL     OW75760   7.998   0.196   6.471
23989SOL    HW175761   7.993   0.191   6.571
23989SOL    HW275762   8.000   0.292   6.442
23990SOL     OW75763   7.799   1.801   6.439
23990SOL    HW175764   7.849   1.715   6.445
23990SOL    HW275765   7.864   1.878   6.436
23991SOL     OW75766   9.243   1.066   6.459
23991SOL    HW175767   9.181   1.051   6.383
23991SOL    HW275768   9.191   1.077   6.544
23992SOL     OW75769   7.769   0.943   5.828
23992SOL    HW175770   7.851   0.982   5.786
23992SOL    HW275771   7.742   0.861   5.779
23993SOL     OW75772   8.906   0.735   6.314
23993SOL    HW175773   8.901   0.670   6.389
23993SOL    HW275774   8.986   0.794   6.327
23994SOL     OW75775   7.909   1.266   7.313
23994SOL    HW175776   7.859   1.267   7.227
23994SOL    HW275777   7.846   1.248   7.389
23995SOL     OW75778   8.559   1.776   5.823
23995SOL    HW175779   8.499   1.714   5.873
23995SOL    HW275780   8.590   1.732   5.738
23996SOL     OW75781   7.650   0.285   7.084
23996SOL    HW175782   7.570   0.345   7.071
23996SOL    HW275783   7.640   0.236   7.170
23997SOL     OW75784   9.080   1.377   5.667
23997SOL    HW175785   9.048   1.471   5.657
23997SOL    HW275786   9.004   1.314   5.655
23998SOL     OW75787   8.848   0.107   6.012
23998SOL    HW175788   8.824   0.070   5.922
23998SOL    HW275789   8.947   0.123   6.016
23999SOL     OW75790   7.697   1.785   6.827
23999SOL    HW175791   7.754   1.720   6.877
23999SOL    HW275792   7.681   1.752   6.734
24000SOL     OW75793   8.388   1.698   6.490
24000SOL    HW175794   8.468   1.641   6.511
24000SOL    HW275795   8.339   1.658   6.413
24001SOL     OW75796   8.995   0.222   7.315
24001SOL    HW175797   8.990   0.259   7.407
24001SOL    HW275798   8.923   0.153   7.303
24002SOL     OW75799   8.062   0.122   5.703
24002SOL    HW175800   8.160   0.100   5.710
24002SOL    HW275801   8.031   0.105   5.610
24003SOL     OW75802   8.229   0.264   7.335
24003SOL    HW175803   8.296   0.203   7.378
24003SOL    HW275804   8.156   0.283   7.400
24004SOL     OW75805   8.336   1.514   6.781
24004SOL    HW175806   8.313   1.489   6.687
24004SOL    HW275807   8.397   1.445   6.820
24005SOL     OW75808   8.799   0.590   7.019
24005SOL    HW175809   8.827   0.547   7.104
24005SOL    HW275810   8.824   0.686   7.020
24006SOL     OW75811   8.251   1.402   6.510
24006SOL    HW175812   8.341   1.416   6.468
24006SOL    HW275813   8.180   1.404   6.439
24007SOL     OW75814   8.370   0.503   6.485
24007SOL    HW175815   8.345   0.494   6.389
24007SOL    HW275816   8.418   0.421   6.516
24008SOL     OW75817   7.987   0.064   6.098
24008SOL    HW175818   7.906   0.065   6.156
24008SOL    HW275819   7.990   0.147   6.043
24009SOL     OW75820   8.882   1.188   5.627
24009SOL    HW175821   8.914   1.112   5.684
24009SOL    HW275822   8.790   1.215   5.657
24010SOL     OW75823   7.745   0.035   5.757
24010SOL    HW175824   7.794   0.119   5.736
24010SOL    HW275825   7.807  -0.030   5.802
24011SOL     OW75826   8.383   0.236   6.066
24011SOL    HW175827   8.335   0.277   5.988
24011SOL    HW275828   8.482   0.234   6.047
24012SOL     OW75829   8.524   0.683   7.050
24012SOL    HW175830   8.444   0.622   7.053
24012SOL    HW275831   8.605   0.630   7.026
24013SOL     OW75832   8.675   1.570   6.379
24013SOL    HW175833   8.696   1.644   6.314
24013SOL    HW275834   8.743   1.570   6.452
24014SOL     OW75835   7.907   1.152   6.327
24014SOL    HW175836   7.836   1.125   6.392
24014SOL    HW275837   7.881   1.124   6.234
24015SOL     OW75838   8.480   0.549   5.602
24015SOL    HW175839   8.439   0.631   5.563
24015SOL    HW275840   8.544   0.575   5.675
24016SOL     OW75841   8.009   0.222   6.733
24016SOL    HW175842   8.047   0.138   6.770
24016SOL    HW275843   7.921   0.241   6.777
24017SOL     OW75844   8.465   0.039   6.339
24017SOL    HW175845   8.393   0.044   6.270
24017SOL    HW275846   8.441  -0.030   6.408
24018SOL     OW75847   8.877   1.173   6.453
24018SOL    HW175848   8.822   1.089   6.446
24018SOL    HW275849   8.903   1.202   6.361
24019SOL     OW75850   8.914   0.590   6.578
24019SOL    HW175851   8.884   0.495   6.585
24019SOL    HW275852   8.987   0.606   6.644
24020SOL     OW75853   9.305   0.833   5.963
24020SOL    HW175854   9.347   0.769   6.027
24020SOL    HW275855   9.267   0.782   5.885
24021SOL     OW75856   9.112   1.280   6.243
24021SOL    HW175857   9.211   1.288   6.257
24021SOL    HW275858   9.067   1.364   6.274
24022SOL     OW75859   8.838   0.575   5.664
24022SOL    HW175860   8.784   0.554   5.745
24022SOL    HW275861   8.929   0.534   5.673
24023SOL     OW75862   7.975   0.256   5.914
24023SOL    HW175863   8.002   0.197   5.839
24023SOL    HW275864   7.975   0.351   5.883
24024SOL     OW75865   9.202   1.223   7.174
24024SOL    HW175866   9.293   1.184   7.161
24024SOL    HW275867   9.210   1.319   7.198
24025SOL     OW75868   8.512   1.347   6.926
24025SOL    HW175869   8.432   1.324   6.981
24025SOL    HW275870   8.595   1.321   6.975
24026SOL     OW75871   9.040   1.629   7.211
24026SOL    HW175872   9.067   1.663   7.121
24026SOL    HW275873   9.119   1.591   7.257
24027SOL     OW75874   8.559   1.195   6.686
24027SOL    HW175875   8.519   1.239   6.767
24027SOL    HW275876   8.518   1.232   6.603
24028SOL     OW75877   9.086   1.099   6.665
24028SOL    HW175878   9.091   1.180   6.724
24028SOL    HW275879   9.000   1.101   6.614
24029SOL     OW75880   8.363   0.089   6.988
24029SOL    HW175881   8.388   0.069   6.893
24029SOL    HW275882   8.435   0.145   7.030
24030SOL     OW75883   8.428   1.116   7.305
24030SOL    HW175884   8.329   1.122   7.315
24030SOL    HW275885   8.451   1.036   7.249
24031SOL     OW75886   8.153   1.050   5.954
24031SOL    HW175887   8.139   1.057   6.053
24031SOL    HW275888   8.237   0.999   5.936
24032SOL     OW75889   8.722   0.386   6.848
24032SOL    HW175890   8.743   0.460   6.912
24032SOL    HW275891   8.633   0.403   6.805
24033SOL     OW75892   7.512   1.564   6.917
24033SOL    HW175893   7.466   1.646   6.883
24033SOL    HW275894   7.610   1.583   6.926
24034SOL     OW75895   7.815   1.100   6.087
24034SOL    HW175896   7.808   1.183   6.031
24034SOL    HW275897   7.819   1.020   6.027
24035SOL     OW75898   8.014   0.537   6.451
24035SOL    HW175899   8.026   0.603   6.377
24035SOL    HW275900   8.060   0.571   6.534
24036SOL     OW75901   8.720   1.445   6.728
24036SOL    HW175902   8.767   1.458   6.815
24036SOL    HW275903   8.654   1.371   6.737
24037SOL     OW75904   9.030   0.639   6.058
24037SOL    HW175905   8.999   0.700   6.131
24037SOL    HW275906   9.080   0.691   5.989
24038SOL     OW75907   7.802   1.510   6.915
24038SOL    HW175908   7.781   1.466   6.828
24038SOL    HW275909   7.899   1.536   6.918
24039SOL     OW75910   7.850   0.751   7.184
24039SOL    HW175911   7.918   0.806   7.137
24039SOL    HW275912   7.890   0.663   7.211
24040SOL     OW75913   9.035   0.779   7.256
24040SOL    HW175914   8.943   0.817   7.251
24040SOL    HW275915   9.095   0.826   7.191
24041SOL     OW75916   8.461   0.105   7.356
24041SOL    HW175917   8.467   0.190   7.304
24041SOL    HW275918   8.493   0.029   7.299
24042SOL     OW75919   7.952   0.050   7.326
24042SOL    HW175920   7.910  -0.007   7.256
24042SOL    HW275921   7.886   0.119   7.358
24043SOL     OW75922   8.021   0.870   6.615
24043SOL    HW175923   8.065   0.959   6.606
24043SOL    HW275924   7.958   0.870   6.692
24044SOL     OW75925   8.808   0.862   6.631
24044SOL    HW175926   8.733   0.862   6.565
24044SOL    HW275927   8.845   0.770   6.640
24045SOL     OW75928   8.657   0.525   5.861
24045SOL    HW175929   8.670   0.441   5.915
24045SOL    HW275930   8.628   0.599   5.921
24046SOL     OW75931   7.755   0.213   6.817
24046SOL    HW175932   7.732   0.250   6.907
24046SOL    HW275933   7.725   0.118   6.811
24047SOL     OW75934   7.485   1.310   6.868
24047SOL    HW175935   7.538   1.261   6.936
24047SOL    HW275936   7.507   1.408   6.873
24048SOL     OW75937   8.180   0.634   6.650
24048SOL    HW175938   8.239   0.608   6.574
24048SOL    HW275939   8.152   0.730   6.639
24049SOL     OW75940   9.176   0.935   7.440
24049SOL    HW175941   9.130   0.928   7.351
24049SOL    HW275942   9.114   0.979   7.506
24050SOL     OW75943   7.755   0.063   6.204
24050SOL    HW175944   7.744   0.157   6.237
24050SOL    HW275945   7.750   0.000   6.281
24051SOL     OW75946   9.070   0.367   5.960
24051SOL    HW175947   9.072   0.291   6.024
24051SOL    HW275948   9.022   0.444   6.000
24052SOL     OW75949   8.471   0.766   6.552
24052SOL    HW175950   8.486   0.787   6.648
24052SOL    HW275951   8.441   0.671   6.543
24053SOL     OW75952   9.307   1.518   7.191
24053SOL    HW175953   9.321   1.545   7.096
24053SOL    HW275954   9.390   1.540   7.244
24054SOL     OW75955   7.798   0.898   7.390
24054SOL    HW175956   7.874   0.942   7.438
24054SOL    HW275957   7.833   0.851   7.308
24055SOL     OW75958   8.988   0.274   5.711
24055SOL    HW175959   8.927   0.199   5.734
24055SOL    HW275960   9.010   0.326   5.794
24056SOL     OW75961   8.751   0.838   5.628
24056SOL    HW175962   8.785   0.745   5.643
24056SOL    HW275963   8.769   0.865   5.533
24057SOL     OW75964   8.516   1.333   6.435
24057SOL    HW175965   8.523   1.249   6.380
24057SOL    HW275966   8.578   1.402   6.399
24058SOL     OW75967   7.767   0.810   6.535
24058SOL    HW175968   7.860   0.846   6.540
24058SOL    HW275969   7.761   0.725   6.587
24059SOL     OW75970   7.787   0.509   6.592
24059SOL    HW175971   7.735   0.426   6.575
24059SOL    HW275972   7.864   0.514   6.528
24060SOL     OW75973   8.586   0.380   7.264
24060SOL    HW175974   8.541   0.443   7.328
24060SOL    HW275975   8.679   0.411   7.247
24061SOL     OW75976   8.608   0.207   7.063
24061SOL    HW175977   8.608   0.271   7.140
24061SOL    HW275978   8.636   0.255   6.980
24062SOL     OW75979   7.456   1.326   5.786
24062SOL    HW175980   7.363   1.347   5.755
24062SOL    HW275981   7.466   1.227   5.799
24063SOL     OW75982   7.952   1.568   6.496
24063SOL    HW175983   8.018   1.642   6.505
24063SOL    HW275984   7.996   1.489   6.454
24064SOL     OW75985   8.450   0.796   6.824
24064SOL    HW175986   8.491   0.764   6.910
24064SOL    HW275987   8.354   0.769   6.821
24065SOL     OW75988   7.637   0.520   7.308
24065SOL    HW175989   7.696   0.480   7.238
24065SOL    HW275990   7.579   0.591   7.267
24066SOL     OW75991   8.817   0.950   7.246
24066SOL    HW175992   8.856   1.039   7.266
24066SOL    HW275993   8.827   0.930   7.149
24067SOL     OW75994   9.105   0.604   6.792
24067SOL    HW175995   9.067   0.535   6.854
24067SOL    HW275996   9.187   0.568   6.748
24068SOL     OW75997   7.700   1.564   7.330
24068SOL    HW175998   7.670   1.621   7.406
24068SOL    HW275999   7.693   1.467   7.356
24069SOL     OW76000   8.119   0.464   6.855
24069SOL    HW176001   8.085   0.375   6.825
24069SOL    HW276002   8.145   0.518   6.775
24070SOL     OW76003   7.921   0.500   5.777
24070SOL    HW176004   7.982   0.580   5.781
24070SOL    HW276005   7.826   0.531   5.784
24071SOL     OW76006   7.607   1.137   7.052
24071SOL    HW176007   7.629   1.076   7.128
24071SOL    HW276008   7.617   1.088   6.966
24072SOL     OW76009   8.795   1.059   6.820
24072SOL    HW176010   8.819   0.996   6.746
24072SOL    HW276011   8.705   1.099   6.802
24073SOL     OW76012   8.750   0.855   5.895
24073SOL    HW176013   8.664   0.824   5.937
24073SOL    HW276014   8.746   0.841   5.796
24074SOL     OW76015   9.207   1.747   6.740
24074SOL    HW176016   9.268   1.777   6.667
24074SOL    HW276017   9.169   1.658   6.718
24075SOL     OW76018   8.700   1.731   6.714
24075SOL    HW176019   8.784   1.736   6.660
24075SOL    HW276020   8.677   1.635   6.732
24076SOL     OW76021   7.531   1.258   6.608
24076SOL    HW176022   7.526   1.257   6.708
24076SOL    HW276023   7.448   1.217   6.570
24077SOL     OW76024   8.136   1.662   7.302
24077SOL    HW176025   8.080   1.743   7.311
24077SOL    HW276026   8.188   1.666   7.216
24078SOL     OW76027   9.174   0.135   6.109
24078SOL    HW176028   9.247   0.118   6.042
24078SOL    HW276029   9.143   0.048   6.147
24079SOL     OW76030   8.836   1.573   6.063
24079SOL    HW176031   8.903   1.585   5.989
24079SOL    HW276032   8.796   1.662   6.086
24080SOL     OW76033   7.578   1.794   7.437
24080SOL    HW176034   7.537   1.720   7.490
24080SOL    HW276035   7.642   1.845   7.495
24081SOL     OW76036   8.728   0.927   6.258
24081SOL    HW176037   8.788   0.846   6.260
24081SOL    HW276038   8.768   0.996   6.198
24082SOL     OW76039   8.278   1.273   7.008
24082SOL    HW176040   8.273   1.306   7.103
24082SOL    HW276041   8.192   1.292   6.962
24083SOL     OW76042   9.098   1.720   6.980
24083SOL    HW176043   9.151   1.730   6.896
24083SOL    HW276044   9.071   1.810   7.014
24084SOL     OW76045   9.289   0.175   6.549
24084SOL    HW176046   9.328   0.090   6.513
24084SOL    HW276047   9.191   0.177   6.530
24085SOL     OW76048   7.711   0.326   6.306
24085SOL    HW176049   7.632   0.377   6.272
24085SOL    HW276050   7.702   0.311   6.404
24086SOL     OW76051   8.642   1.612   5.617
24086SOL    HW176052   8.648   1.519   5.654
24086SOL    HW276053   8.583   1.612   5.537
24087SOL     OW76054   8.270   1.002   6.958
24087SOL    HW176055   8.310   1.001   6.866
24087SOL    HW276056   8.280   1.094   6.998
24088SOL     OW76057   8.364   0.910   5.877
24088SOL    HW176058   8.427   0.948   5.809
24088SOL    HW276059   8.404   0.827   5.916
24089SOL     OW76060   8.952   1.607   5.630
24089SOL    HW176061   8.860   1.644   5.637
24089SOL    HW276062   8.990   1.627   5.540
24090SOL     OW76063   7.820   1.288   7.076
24090SOL    HW176064   7.807   1.381   7.042
24090SOL    HW276065   7.736   1.236   7.063
24091SOL     OW76066   9.062   1.292   6.875
24091SOL    HW176067   9.122   1.295   6.955
24091SOL    HW276068   8.987   1.356   6.888
24092SOL     OW76069   8.462   0.236   6.557
24092SOL    HW176070   8.454   0.200   6.464
24092SOL    HW276071   8.460   0.160   6.622
24093SOL     OW76072   8.038   1.487   6.077
24093SOL    HW176073   8.080   1.429   6.007
24093SOL    HW276074   7.994   1.566   6.033
24094SOL     OW76075   9.157   0.385   6.967
24094SOL    HW176076   9.230   0.454   6.971
24094SOL    HW276077   9.185   0.310   6.908
24095SOL     OW76078   7.553   1.013   7.312
24095SOL    HW176079   7.476   0.980   7.366
24095SOL    HW276080   7.638   0.983   7.354
24096SOL     OW76081   8.120   0.203   7.075
24096SOL    HW176082   8.210   0.187   7.035
24096SOL    HW276083   8.128   0.208   7.174
24097SOL     OW76084   7.523   0.345   5.619
24097SOL    HW176085   7.431   0.317   5.590
24097SOL    HW276086   7.554   0.422   5.563
24098SOL     OW76087   8.888   0.856   6.984
24098SOL    HW176088   8.831   0.908   6.921
24098SOL    HW276089   8.984   0.868   6.960
24099SOL     OW76090   7.520   0.166   5.904
24099SOL    HW176091   7.503   0.249   5.850
24099SOL    HW276092   7.610   0.129   5.882
24100SOL     OW76093   8.631   1.335   5.705
24100SOL    HW176094   8.532   1.324   5.707
24100SOL    HW276095   8.665   1.350   5.798
24101SOL     OW76096   8.061   0.842   7.017
24101SOL    HW176097   8.117   0.923   7.000
24101SOL    HW276098   8.120   0.762   7.020
24102SOL     OW76099   8.941   1.767   6.545
24102SOL    HW176100   8.974   1.831   6.476
24102SOL    HW276101   9.007   1.761   6.620
24103SOL     OW76102   8.164   0.565   7.294
24103SOL    HW176103   8.183   0.630   7.368
24103SOL    HW276104   8.224   0.485   7.303
24104SOL     OW76105   7.838   1.741   7.146
24104SOL    HW176106   7.747   1.782   7.144
24104SOL    HW276107   7.831   1.647   7.178
24105SOL     OW76108   9.122   0.883   6.840
24105SOL    HW176109   9.095   0.794   6.803
24105SOL    HW276110   9.123   0.951   6.767
24106SOL     OW76111   8.673   0.325   6.035
24106SOL    HW176112   8.738   0.251   6.024
24106SOL    HW276113   8.693   0.375   6.119
24107SOL     OW76114   9.225   0.342   7.228
24107SOL    HW176115   9.208   0.373   7.134
24107SOL    HW276116   9.141   0.305   7.266
24108SOL     OW76117   9.178   0.934   7.103
24108SOL    HW176118   9.216   1.025   7.118
24108SOL    HW276119   9.170   0.917   7.004
24109SOL     OW76120   8.307   1.374   5.602
24109SOL    HW176121   8.261   1.389   5.690
24109SOL    HW276122   8.351   1.459   5.572
24110SOL     OW76123   8.109   1.790   6.539
24110SOL    HW176124   8.063   1.878   6.526
24110SOL    HW276125   8.208   1.802   6.532
24111SOL     OW76126   8.307   0.956   6.447
24111SOL    HW176127   8.361   0.887   6.495
24111SOL    HW276128   8.275   1.025   6.513
24112SOL     OW76129   8.531   0.984   5.673
24112SOL    HW176130   8.508   1.037   5.591
24112SOL    HW276131   8.612   0.928   5.654
24113SOL     OW76132   9.309   1.569   6.437
24113SOL    HW176133   9.238   1.557   6.367
24113SOL    HW276134   9.310   1.490   6.497
24114SOL     OW76135   7.669   1.314   7.430
24114SOL    HW176136   7.604   1.241   7.409
24114SOL    HW276137   7.673   1.328   7.528
24115SOL     OW76138   7.527   1.240   6.239
24115SOL    HW176139   7.526   1.193   6.327
24115SOL    HW276140   7.609   1.212   6.188
24116SOL     OW76141   8.120   1.391   7.210
24116SOL    HW176142   8.042   1.341   7.248
24116SOL    HW276143   8.117   1.486   7.241
24117SOL     OW76144   9.272   0.192   6.813
24117SOL    HW176145   9.268   0.102   6.857
24117SOL    HW276146   9.275   0.181   6.714
24118SOL     OW76147   7.876   0.424   6.106
24118SOL    HW176148   7.906   0.352   6.044
24118SOL    HW276149   7.837   0.384   6.189
24119SOL     OW76150   9.153   1.487   6.690
24119SOL    HW176151   9.060   1.462   6.663
24119SOL    HW276152   9.179   1.437   6.772
24120SOL     OW76153   8.260   1.586   6.273
24120SOL    HW176154   8.292   1.596   6.179
24120SOL    HW276155   8.181   1.524   6.275
24121SOL     OW76156   8.872   0.214   6.698
24121SOL    HW176157   8.924   0.149   6.753
24121SOL    HW276158   8.823   0.277   6.759
24122SOL     OW76159   8.449   0.034   6.740
24122SOL    HW176160   8.386  -0.038   6.709
24122SOL    HW276161   8.542  -0.002   6.740
24123SOL     OW76162   8.218   1.330   5.887
24123SOL    HW176163   8.172   1.243   5.904
24123SOL    HW276164   8.309   1.327   5.928
24124SOL     OW76165   8.066   1.567   6.870
24124SOL    HW176166   8.061   1.649   6.927
24124SOL    HW276167   8.155   1.564   6.825
24125SOL     OW76168   8.800   0.052   5.754
24125SOL    HW176169   8.835   0.011   5.670
24125SOL    HW276170   8.710   0.014   5.774
24126SOL     OW76171   8.748   0.453   6.277
24126SOL    HW176172   8.689   0.533   6.281
24126SOL    HW276173   8.763   0.418   6.370
24127SOL     OW76174   9.041   0.221   6.468
24127SOL    HW176175   8.957   0.220   6.522
24127SOL    HW276176   9.043   0.304   6.412
24128SOL     OW76177   7.487   1.077   5.886
24128SOL    HW176178   7.586   1.066   5.877
24128SOL    HW276179   7.447   0.991   5.918
24129SOL     OW76180   8.323   1.646   5.923
24129SOL    HW176181   8.246   1.611   5.869
24129SOL    HW276182   8.291   1.717   5.985
24130SOL     OW76183   7.678   0.628   7.561
24130SOL    HW176184   7.585   0.626   7.598
24130SOL    HW276185   7.679   0.589   7.469
24131SOL     OW76186   7.673   0.275   8.444
24131SOL    HW176187   7.708   0.258   8.536
24131SOL    HW276188   7.585   0.230   8.432
24132SOL     OW76189   8.017   1.275   8.613
24132SOL    HW176190   7.924   1.268   8.576
24132SOL    HW276191   8.028   1.364   8.657
24133SOL     OW76192   9.003   1.511   8.151
24133SOL    HW176193   8.946   1.495   8.232
24133SOL    HW276194   8.944   1.521   8.071
24134SOL     OW76195   8.583   0.703   8.165
24134SOL    HW176196   8.640   0.781   8.140
24134SOL    HW276197   8.523   0.729   8.241
24135SOL     OW76198   9.203   0.607   7.679
24135SOL    HW176199   9.191   0.594   7.580
24135SOL    HW276200   9.173   0.526   7.728
24136SOL     OW76201   8.216   1.144   8.471
24136SOL    HW176202   8.138   1.161   8.531
24136SOL    HW276203   8.250   1.231   8.435
24137SOL     OW76204   8.298   0.798   9.271
24137SOL    HW176205   8.294   0.874   9.336
24137SOL    HW276206   8.320   0.834   9.180
24138SOL     OW76207   8.133   1.012   8.113
24138SOL    HW176208   8.202   0.996   8.183
24138SOL    HW276209   8.060   1.069   8.151
24139SOL     OW76210   8.134   1.161   9.251
24139SOL    HW176211   8.194   1.240   9.265
24139SOL    HW276212   8.048   1.192   9.210
24140SOL     OW76213   7.783   1.435   8.509
24140SOL    HW176214   7.705   1.404   8.456
24140SOL    HW276215   7.841   1.493   8.452
24141SOL     OW76216   8.908   1.505   8.787
24141SOL    HW176217   8.932   1.599   8.813
24141SOL    HW276218   8.892   1.451   8.869
24142SOL     OW76219   7.886   0.392   8.947
24142SOL    HW176220   7.968   0.336   8.956
24142SOL    HW276221   7.805   0.334   8.951
24143SOL     OW76222   9.051   0.447   8.185
24143SOL    HW176223   8.977   0.493   8.135
24143SOL    HW276224   9.102   0.515   8.238
24144SOL     OW76225   7.679   1.713   7.931
24144SOL    HW176226   7.713   1.790   7.985
24144SOL    HW276227   7.723   1.713   7.841
24145SOL     OW76228   8.575   1.341   9.138
24145SOL    HW176229   8.622   1.341   9.226
24145SOL    HW276230   8.527   1.254   9.127
24146SOL     OW76231   7.678   1.434   7.986
24146SOL    HW176232   7.652   1.530   7.986
24146SOL    HW276233   7.607   1.380   8.031
24147SOL     OW76234   7.688   1.091   8.334
24147SOL    HW176235   7.702   1.007   8.386
24147SOL    HW276236   7.633   1.155   8.389
24148SOL     OW76237   8.068   1.786   8.887
24148SOL    HW176238   7.976   1.769   8.922
24148SOL    HW276239   8.096   1.878   8.913
24149SOL     OW76240   8.054   0.964   7.571
24149SOL    HW176241   8.061   1.048   7.517
24149SOL    HW276242   8.100   0.977   7.659
24150SOL     OW76243   9.042   0.114   8.928
24150SOL    HW176244   9.024   0.181   8.856
24150SOL    HW276245   9.039   0.160   9.017
24151SOL     OW76246   7.570   0.643   8.011
24151SOL    HW176247   7.525   0.555   8.028
24151SOL    HW276248   7.569   0.697   8.095
24152SOL     OW76249   9.290   1.767   7.807
24152SOL    HW176250   9.344   1.738   7.887
24152SOL    HW276251   9.320   1.857   7.778
24153SOL     OW76252   7.475   1.596   7.565
24153SOL    HW176253   7.456   1.500   7.586
24153SOL    HW276254   7.442   1.654   7.640
24154SOL     OW76255   9.137   0.922   8.060
24154SOL    HW176256   9.232   0.893   8.068
24154SOL    HW276257   9.129   0.987   7.985
24155SOL     OW76258   9.089   1.108   7.880
24155SOL    HW176259   9.175   1.110   7.828
24155SOL    HW276260   9.103   1.155   7.968
24156SOL     OW76261   7.561   0.737   9.045
24156SOL    HW176262   7.649   0.724   9.090
24156SOL    HW276263   7.548   0.834   9.023
24157SOL     OW76264   8.061   1.365   8.174
24157SOL    HW176265   8.012   1.278   8.183
24157SOL    HW276266   8.038   1.408   8.087
24158SOL     OW76267   8.741   1.228   8.871
24158SOL    HW176268   8.778   1.155   8.813
24158SOL    HW276269   8.793   1.233   8.956
24159SOL     OW76270   8.257   0.004   7.950
24159SOL    HW176271   8.297   0.095   7.941
24159SOL    HW276272   8.157   0.012   7.956
24160SOL     OW76273   7.645   0.976   8.712
24160SOL    HW176274   7.734   0.931   8.698
24160SOL    HW276275   7.572   0.911   8.693
24161SOL     OW76276   8.973   0.999   7.638
24161SOL    HW176277   8.910   0.923   7.651
24161SOL    HW276278   9.021   1.017   7.724
24162SOL     OW76279   8.635   1.792   9.064
24162SOL    HW176280   8.659   1.852   8.988
24162SOL    HW276281   8.642   1.697   9.034
24163SOL     OW76282   7.765   0.251   9.249
24163SOL    HW176283   7.836   0.322   9.255
24163SOL    HW276284   7.677   0.290   9.277
24164SOL     OW76285   8.914   1.417   8.401
24164SOL    HW176286   8.855   1.423   8.481
24164SOL    HW276287   8.899   1.329   8.355
24165SOL     OW76288   9.115   1.714   8.020
24165SOL    HW176289   9.074   1.691   7.932
24165SOL    HW276290   9.097   1.640   8.085
24166SOL     OW76291   8.046   0.729   7.718
24166SOL    HW176292   8.070   0.798   7.650
24166SOL    HW276293   7.968   0.762   7.772
24167SOL     OW76294   8.729   0.345   8.392
24167SOL    HW176295   8.643   0.295   8.379
24167SOL    HW276296   8.791   0.291   8.448
24168SOL     OW76297   9.024   1.662   7.755
24168SOL    HW176298   9.113   1.708   7.758
24168SOL    HW276299   9.003   1.638   7.660
24169SOL     OW76300   8.255   0.605   8.913
24169SOL    HW176301   8.208   0.602   9.002
24169SOL    HW276302   8.204   0.550   8.847
24170SOL     OW76303   8.842   0.469   9.122
24170SOL    HW176304   8.822   0.512   9.210
24170SOL    HW276305   8.920   0.407   9.131
24171SOL     OW76306   8.421   0.890   9.020
24171SOL    HW176307   8.467   0.806   8.991
24171SOL    HW276308   8.365   0.924   8.945
24172SOL     OW76309   8.439   0.410   8.690
24172SOL    HW176310   8.362   0.444   8.744
24172SOL    HW276311   8.405   0.359   8.611
24173SOL     OW76312   8.489   0.701   7.877
24173SOL    HW176313   8.515   0.697   7.973
24173SOL    HW276314   8.404   0.650   7.863
24174SOL     OW76315   7.578   1.821   9.019
24174SOL    HW176316   7.568   1.806   9.118
24174SOL    HW276317   7.492   1.857   8.983
24175SOL     OW76318   8.313   0.348   7.643
24175SOL    HW176319   8.372   0.411   7.594
24175SOL    HW276320   8.332   0.254   7.614
24176SOL     OW76321   9.167   0.585   9.279
24176SOL    HW176322   9.141   0.674   9.243
24176SOL    HW276323   9.165   0.517   9.206
24177SOL     OW76324   8.810   1.144   7.993
24177SOL    HW176325   8.893   1.115   7.945
24177SOL    HW276326   8.761   1.211   7.937
24178SOL     OW76327   7.998   0.196   8.333
24178SOL    HW176328   7.993   0.191   8.433
24178SOL    HW276329   8.000   0.292   8.304
24179SOL     OW76330   8.456   1.456   7.925
24179SOL    HW176331   8.410   1.528   7.873
24179SOL    HW276332   8.452   1.476   8.023
24180SOL     OW76333   7.799   1.801   8.301
24180SOL    HW176334   7.849   1.715   8.307
24180SOL    HW276335   7.864   1.878   8.298
24181SOL     OW76336   9.243   1.066   8.321
24181SOL    HW176337   9.181   1.051   8.245
24181SOL    HW276338   9.191   1.077   8.406
24182SOL     OW76339   8.675   1.550   8.954
24182SOL    HW176340   8.681   1.473   9.018
24182SOL    HW276341   8.623   1.524   8.874
24183SOL     OW76342   7.769   0.943   7.690
24183SOL    HW176343   7.851   0.982   7.648
24183SOL    HW276344   7.742   0.861   7.641
24184SOL     OW76345   8.906   0.735   8.176
24184SOL    HW176346   8.901   0.670   8.251
24184SOL    HW276347   8.986   0.794   8.189
24185SOL     OW76348   7.909   1.266   9.175
24185SOL    HW176349   7.859   1.267   9.089
24185SOL    HW276350   7.846   1.248   9.251
24186SOL     OW76351   8.559   1.776   7.685
24186SOL    HW176352   8.499   1.714   7.735
24186SOL    HW276353   8.590   1.732   7.600
24187SOL     OW76354   7.650   0.285   8.946
24187SOL    HW176355   7.570   0.345   8.933
24187SOL    HW276356   7.640   0.236   9.032
24188SOL     OW76357   9.080   1.377   7.529
24188SOL    HW176358   9.048   1.471   7.519
24188SOL    HW276359   9.004   1.314   7.517
24189SOL     OW76360   7.912   1.743   7.771
24189SOL    HW176361   7.945   1.782   7.857
24189SOL    HW276362   7.988   1.736   7.706
24190SOL     OW76363   8.848   0.107   7.874
24190SOL    HW176364   8.824   0.070   7.784
24190SOL    HW276365   8.947   0.123   7.878
24191SOL     OW76366   7.697   1.785   8.689
24191SOL    HW176367   7.754   1.720   8.739
24191SOL    HW276368   7.681   1.752   8.596
24192SOL     OW76369   8.388   1.698   8.352
24192SOL    HW176370   8.468   1.641   8.373
24192SOL    HW276371   8.339   1.658   8.275
24193SOL     OW76372   7.830   0.700   7.928
24193SOL    HW176373   7.875   0.610   7.925
24193SOL    HW276374   7.736   0.689   7.961
24194SOL     OW76375   8.995   0.222   9.177
24194SOL    HW176376   8.990   0.259   9.269
24194SOL    HW276377   8.923   0.153   9.165
24195SOL     OW76378   8.062   0.122   7.565
24195SOL    HW176379   8.160   0.100   7.572
24195SOL    HW276380   8.031   0.105   7.472
24196SOL     OW76381   8.229   0.264   9.197
24196SOL    HW176382   8.296   0.203   9.240
24196SOL    HW276383   8.156   0.283   9.262
24197SOL     OW76384   8.336   1.514   8.643
24197SOL    HW176385   8.313   1.489   8.549
24197SOL    HW276386   8.397   1.445   8.682
24198SOL     OW76387   8.799   0.590   8.881
24198SOL    HW176388   8.827   0.547   8.966
24198SOL    HW276389   8.824   0.686   8.882
24199SOL     OW76390   8.251   1.402   8.372
24199SOL    HW176391   8.341   1.416   8.330
24199SOL    HW276392   8.180   1.404   8.301
24200SOL     OW76393   8.370   0.503   8.347
24200SOL    HW176394   8.345   0.494   8.251
24200SOL    HW276395   8.418   0.421   8.378
24201SOL     OW76396   7.987   0.064   7.960
24201SOL    HW176397   7.906   0.065   8.018
24201SOL    HW276398   7.990   0.147   7.905
24202SOL     OW76399   8.882   1.188   7.489
24202SOL    HW176400   8.914   1.112   7.546
24202SOL    HW276401   8.790   1.215   7.519
24203SOL     OW76402   7.745   0.035   7.619
24203SOL    HW176403   7.794   0.119   7.598
24203SOL    HW276404   7.807  -0.030   7.664
24204SOL     OW76405   8.383   0.236   7.928
24204SOL    HW176406   8.335   0.277   7.850
24204SOL    HW276407   8.482   0.234   7.909
24205SOL     OW76408   8.524   0.683   8.912
24205SOL    HW176409   8.444   0.622   8.915
24205SOL    HW276410   8.605   0.630   8.888
24206SOL     OW76411   8.675   1.570   8.241
24206SOL    HW176412   8.696   1.644   8.176
24206SOL    HW276413   8.743   1.570   8.314
24207SOL     OW76414   7.907   1.152   8.189
24207SOL    HW176415   7.836   1.125   8.254
24207SOL    HW276416   7.881   1.124   8.096
24208SOL     OW76417   8.719   1.797   8.039
24208SOL    HW176418   8.763   1.861   7.975
24208SOL    HW276419   8.669   1.849   8.109
24209SOL     OW76420   8.480   0.549   7.464
24209SOL    HW176421   8.439   0.631   7.425
24209SOL    HW276422   8.544   0.575   7.537
24210SOL     OW76423   7.526   0.556   8.834
24210SOL    HW176424   7.618   0.555   8.793
24210SOL    HW276425   7.520   0.630   8.901
24211SOL     OW76426   8.314   0.454   8.090
24211SOL    HW176427   8.282   0.526   8.028
24211SOL    HW276428   8.338   0.373   8.037
24212SOL     OW76429   8.465   0.039   8.201
24212SOL    HW176430   8.393   0.044   8.132
24212SOL    HW276431   8.441  -0.030   8.270
24213SOL     OW76432   8.877   1.173   8.315
24213SOL    HW176433   8.822   1.089   8.308
24213SOL    HW276434   8.903   1.202   8.223
24214SOL     OW76435   8.914   0.590   8.440
24214SOL    HW176436   8.884   0.495   8.447
24214SOL    HW276437   8.987   0.606   8.506
24215SOL     OW76438   9.305   0.833   7.825
24215SOL    HW176439   9.347   0.769   7.889
24215SOL    HW276440   9.267   0.782   7.747
24216SOL     OW76441   7.936   1.385   7.622
24216SOL    HW176442   7.849   1.370   7.669
24216SOL    HW276443   7.919   1.411   7.527
24217SOL     OW76444   9.112   1.280   8.105
24217SOL    HW176445   9.211   1.288   8.119
24217SOL    HW276446   9.067   1.364   8.136
24218SOL     OW76447   8.838   0.575   7.526
24218SOL    HW176448   8.784   0.554   7.607
24218SOL    HW276449   8.929   0.534   7.535
24219SOL     OW76450   7.975   0.256   7.776
24219SOL    HW176451   8.002   0.197   7.701
24219SOL    HW276452   7.975   0.351   7.745
24220SOL     OW76453   9.202   1.223   9.036
24220SOL    HW176454   9.293   1.184   9.023
24220SOL    HW276455   9.210   1.319   9.060
24221SOL     OW76456   8.512   1.347   8.788
24221SOL    HW176457   8.432   1.324   8.843
24221SOL    HW276458   8.595   1.321   8.837
24222SOL     OW76459   9.040   1.629   9.073
24222SOL    HW176460   9.067   1.663   8.983
24222SOL    HW276461   9.119   1.591   9.119
24223SOL     OW76462   8.559   1.195   8.548
24223SOL    HW176463   8.519   1.239   8.629
24223SOL    HW276464   8.518   1.232   8.465
24224SOL     OW76465   9.086   1.099   8.527
24224SOL    HW176466   9.091   1.180   8.586
24224SOL    HW276467   9.000   1.101   8.476
24225SOL     OW76468   8.363   0.089   8.850
24225SOL    HW176469   8.388   0.069   8.755
24225SOL    HW276470   8.435   0.145   8.892
24226SOL     OW76471   8.428   1.116   9.167
24226SOL    HW176472   8.329   1.122   9.177
24226SOL    HW276473   8.451   1.036   9.111
24227SOL     OW76474   8.153   1.050   7.816
24227SOL    HW176475   8.139   1.057   7.915
24227SOL    HW276476   8.237   0.999   7.798
24228SOL     OW76477   7.858   0.813   8.699
24228SOL    HW176478   7.944   0.825   8.749
24228SOL    HW276479   7.816   0.726   8.726
24229SOL     OW76480   8.722   0.386   8.710
24229SOL    HW176481   8.743   0.460   8.774
24229SOL    HW276482   8.633   0.403   8.667
24230SOL     OW76483   7.512   1.564   8.779
24230SOL    HW176484   7.466   1.646   8.745
24230SOL    HW276485   7.610   1.583   8.788
24231SOL     OW76486   7.815   1.100   7.949
24231SOL    HW176487   7.808   1.183   7.893
24231SOL    HW276488   7.819   1.020   7.889
24232SOL     OW76489   8.700   1.348   7.836
24232SOL    HW176490   8.750   1.425   7.876
24232SOL    HW276491   8.605   1.350   7.868
24233SOL     OW76492   8.720   1.445   8.590
24233SOL    HW176493   8.767   1.458   8.677
24233SOL    HW276494   8.654   1.371   8.599
24234SOL     OW76495   9.030   0.639   7.920
24234SOL    HW176496   8.999   0.700   7.993
24234SOL    HW276497   9.080   0.691   7.851
24235SOL     OW76498   7.802   1.510   8.777
24235SOL    HW176499   7.781   1.466   8.690
24235SOL    HW276500   7.899   1.536   8.780
24236SOL     OW76501   7.850   0.751   9.046
24236SOL    HW176502   7.918   0.806   8.999
24236SOL    HW276503   7.890   0.663   9.073
24237SOL     OW76504   9.035   0.779   9.118
24237SOL    HW176505   8.943   0.817   9.113
24237SOL    HW276506   9.095   0.826   9.053
24238SOL     OW76507   8.461   0.105   9.218
24238SOL    HW176508   8.467   0.190   9.166
24238SOL    HW276509   8.493   0.029   9.161
24239SOL     OW76510   7.952   0.050   9.188
24239SOL    HW176511   7.910  -0.007   9.118
24239SOL    HW276512   7.886   0.119   9.220
24240SOL     OW76513   8.021   0.870   8.477
24240SOL    HW176514   8.065   0.959   8.468
24240SOL    HW276515   7.958   0.870   8.554
24241SOL     OW76516   8.808   0.862   8.493
24241SOL    HW176517   8.733   0.862   8.427
24241SOL    HW276518   8.845   0.770   8.502
24242SOL     OW76519   8.657   0.525   7.723
24242SOL    HW176520   8.670   0.441   7.777
24242SOL    HW276521   8.628   0.599   7.783
24243SOL     OW76522   7.485   1.310   8.730
24243SOL    HW176523   7.538   1.261   8.798
24243SOL    HW276524   7.507   1.408   8.735
24244SOL     OW76525   9.176   0.935   9.302
24244SOL    HW176526   9.130   0.928   9.213
24244SOL    HW276527   9.114   0.979   9.368
24245SOL     OW76528   9.070   0.367   7.822
24245SOL    HW176529   9.072   0.291   7.886
24245SOL    HW276530   9.022   0.444   7.862
24246SOL     OW76531   8.471   0.766   8.414
24246SOL    HW176532   8.486   0.787   8.510
24246SOL    HW276533   8.441   0.671   8.405
24247SOL     OW76534   8.428   1.573   9.148
24247SOL    HW176535   8.408   1.617   9.060
24247SOL    HW276536   8.467   1.482   9.132
24248SOL     OW76537   9.307   1.518   9.053
24248SOL    HW176538   9.321   1.545   8.958
24248SOL    HW276539   9.390   1.540   9.106
24249SOL     OW76540   7.798   0.898   9.252
24249SOL    HW176541   7.874   0.942   9.300
24249SOL    HW276542   7.833   0.851   9.170
24250SOL     OW76543   8.988   0.274   7.573
24250SOL    HW176544   8.927   0.199   7.596
24250SOL    HW276545   9.010   0.326   7.656
24251SOL     OW76546   8.751   0.838   7.490
24251SOL    HW176547   8.785   0.745   7.505
24251SOL    HW276548   8.769   0.865   7.395
24252SOL     OW76549   8.516   1.333   8.297
24252SOL    HW176550   8.523   1.249   8.242
24252SOL    HW276551   8.578   1.402   8.261
24253SOL     OW76552   7.767   0.810   8.397
24253SOL    HW176553   7.860   0.846   8.402
24253SOL    HW276554   7.761   0.725   8.449
24254SOL     OW76555   8.586   0.380   9.126
24254SOL    HW176556   8.541   0.443   9.190
24254SOL    HW276557   8.679   0.411   9.109
24255SOL     OW76558   8.608   0.207   8.925
24255SOL    HW176559   8.608   0.271   9.002
24255SOL    HW276560   8.636   0.255   8.842
24256SOL     OW76561   7.456   1.326   7.648
24256SOL    HW176562   7.363   1.347   7.617
24256SOL    HW276563   7.466   1.227   7.661
24257SOL     OW76564   7.536   1.801   8.375
24257SOL    HW176565   7.494   1.715   8.348
24257SOL    HW276566   7.630   1.804   8.341
24258SOL     OW76567   7.952   1.568   8.358
24258SOL    HW176568   8.018   1.642   8.367
24258SOL    HW276569   7.996   1.489   8.316
24259SOL     OW76570   8.450   0.796   8.686
24259SOL    HW176571   8.491   0.764   8.772
24259SOL    HW276572   8.354   0.769   8.683
24260SOL     OW76573   7.637   0.520   9.170
24260SOL    HW176574   7.696   0.480   9.100
24260SOL    HW276575   7.579   0.591   9.129
24261SOL     OW76576   8.817   0.950   9.108
24261SOL    HW176577   8.856   1.039   9.128
24261SOL    HW276578   8.827   0.930   9.011
24262SOL     OW76579   8.263   0.572   7.773
24262SOL    HW176580   8.270   0.483   7.727
24262SOL    HW276581   8.169   0.606   7.765
24263SOL     OW76582   9.105   0.604   8.654
24263SOL    HW176583   9.067   0.535   8.716
24263SOL    HW276584   9.187   0.568   8.610
24264SOL     OW76585   7.700   1.564   9.192
24264SOL    HW176586   7.670   1.621   9.268
24264SOL    HW276587   7.693   1.467   9.218
24265SOL     OW76588   8.378   1.678   8.913
24265SOL    HW176589   8.354   1.660   8.818
24265SOL    HW276590   8.408   1.772   8.923
24266SOL     OW76591   7.921   0.500   7.639
24266SOL    HW176592   7.982   0.580   7.643
24266SOL    HW276593   7.826   0.531   7.646
24267SOL     OW76594   7.607   1.137   8.914
24267SOL    HW176595   7.629   1.076   8.990
24267SOL    HW276596   7.617   1.088   8.828
24268SOL     OW76597   8.795   1.059   8.682
24268SOL    HW176598   8.819   0.996   8.608
24268SOL    HW276599   8.705   1.099   8.664
24269SOL     OW76600   8.750   0.855   7.757
24269SOL    HW176601   8.664   0.824   7.799
24269SOL    HW276602   8.746   0.841   7.658
24270SOL     OW76603   9.207   1.747   8.602
24270SOL    HW176604   9.268   1.777   8.529
24270SOL    HW276605   9.169   1.658   8.580
24271SOL     OW76606   8.700   1.731   8.576
24271SOL    HW176607   8.784   1.736   8.522
24271SOL    HW276608   8.677   1.635   8.594
24272SOL     OW76609   7.531   1.258   8.470
24272SOL    HW176610   7.526   1.257   8.570
24272SOL    HW276611   7.448   1.217   8.432
24273SOL     OW76612   8.136   1.662   9.164
24273SOL    HW176613   8.080   1.743   9.173
24273SOL    HW276614   8.188   1.666   9.078
24274SOL     OW76615   9.174   0.135   7.971
24274SOL    HW176616   9.247   0.118   7.904
24274SOL    HW276617   9.143   0.048   8.009
24275SOL     OW76618   8.836   1.573   7.925
24275SOL    HW176619   8.903   1.585   7.851
24275SOL    HW276620   8.796   1.662   7.948
24276SOL     OW76621   7.578   1.794   9.299
24276SOL    HW176622   7.537   1.720   9.352
24276SOL    HW276623   7.642   1.845   9.357
24277SOL     OW76624   8.728   0.927   8.120
24277SOL    HW176625   8.788   0.846   8.122
24277SOL    HW276626   8.768   0.996   8.060
24278SOL     OW76627   8.278   1.273   8.870
24278SOL    HW176628   8.273   1.306   8.965
24278SOL    HW276629   8.192   1.292   8.824
24279SOL     OW76630   8.120   1.616   7.602
24279SOL    HW176631   8.129   1.626   7.503
24279SOL    HW276632   8.080   1.527   7.623
24280SOL     OW76633   9.098   1.720   8.842
24280SOL    HW176634   9.151   1.730   8.758
24280SOL    HW276635   9.071   1.810   8.876
24281SOL     OW76636   9.289   0.175   8.411
24281SOL    HW176637   9.328   0.090   8.375
24281SOL    HW276638   9.191   0.177   8.392
24282SOL     OW76639   8.270   1.002   8.820
24282SOL    HW176640   8.310   1.001   8.728
24282SOL    HW276641   8.280   1.094   8.860
24283SOL     OW76642   8.364   0.910   7.739
24283SOL    HW176643   8.427   0.948   7.671
24283SOL    HW276644   8.404   0.827   7.778
24284SOL     OW76645   8.952   1.607   7.492
24284SOL    HW176646   8.860   1.644   7.499
24284SOL    HW276647   8.990   1.627   7.402
24285SOL     OW76648   7.820   1.288   8.938
24285SOL    HW176649   7.807   1.381   8.904
24285SOL    HW276650   7.736   1.236   8.925
24286SOL     OW76651   9.062   1.292   8.737
24286SOL    HW176652   9.122   1.295   8.817
24286SOL    HW276653   8.987   1.356   8.750
24287SOL     OW76654   8.487   1.098   8.144
24287SOL    HW176655   8.417   1.051   8.198
24287SOL    HW276656   8.546   1.030   8.101
24288SOL     OW76657   8.462   0.236   8.419
24288SOL    HW176658   8.454   0.200   8.326
24288SOL    HW276659   8.460   0.160   8.484
24289SOL     OW76660   8.038   1.487   7.939
24289SOL    HW176661   8.080   1.429   7.869
24289SOL    HW276662   7.994   1.566   7.895
24290SOL     OW76663   9.157   0.385   8.829
24290SOL    HW176664   9.230   0.454   8.833
24290SOL    HW276665   9.185   0.310   8.770
24291SOL     OW76666   7.703   1.348   7.738
24291SOL    HW176667   7.607   1.349   7.711
24291SOL    HW276668   7.715   1.401   7.822
24292SOL     OW76669   7.553   1.013   9.174
24292SOL    HW176670   7.476   0.980   9.228
24292SOL    HW276671   7.638   0.983   9.216
24293SOL     OW76672   7.523   0.345   7.481
24293SOL    HW176673   7.431   0.317   7.452
24293SOL    HW276674   7.554   0.422   7.425
24294SOL     OW76675   8.888   0.856   8.846
24294SOL    HW176676   8.831   0.908   8.783
24294SOL    HW276677   8.984   0.868   8.822
24295SOL     OW76678   7.520   0.166   7.766
24295SOL    HW176679   7.503   0.249   7.712
24295SOL    HW276680   7.610   0.129   7.744
24296SOL     OW76681   8.631   1.335   7.567
24296SOL    HW176682   8.532   1.324   7.569
24296SOL    HW276683   8.665   1.350   7.660
24297SOL     OW76684   8.061   0.842   8.879
24297SOL    HW176685   8.117   0.923   8.862
24297SOL    HW276686   8.120   0.762   8.882
24298SOL     OW76687   8.941   1.767   8.407
24298SOL    HW176688   8.974   1.831   8.338
24298SOL    HW276689   9.007   1.761   8.482
24299SOL     OW76690   8.164   0.565   9.156
24299SOL    HW176691   8.183   0.630   9.230
24299SOL    HW276692   8.224   0.485   9.165
24300SOL     OW76693   8.898   1.220   9.081
24300SOL    HW176694   8.889   1.210   9.180
24300SOL    HW276695   8.994   1.213   9.055
24301SOL     OW76696   7.838   1.741   9.008
24301SOL    HW176697   7.747   1.782   9.006
24301SOL    HW276698   7.831   1.647   9.040
24302SOL     OW76699   9.122   0.883   8.702
24302SOL    HW176700   9.095   0.794   8.665
24302SOL    HW276701   9.123   0.951   8.629
24303SOL     OW76702   8.673   0.325   7.897
24303SOL    HW176703   8.738   0.251   7.886
24303SOL    HW276704   8.693   0.375   7.981
24304SOL     OW76705   8.042   0.745   8.100
24304SOL    HW176706   8.092   0.830   8.081
24304SOL    HW276707   7.954   0.747   8.052
24305SOL     OW76708   9.225   0.342   9.090
24305SOL    HW176709   9.208   0.373   8.996
24305SOL    HW276710   9.141   0.305   9.128
24306SOL     OW76711   9.178   0.934   8.965
24306SOL    HW176712   9.216   1.025   8.980
24306SOL    HW276713   9.170   0.917   8.866
24307SOL     OW76714   8.307   1.374   7.464
24307SOL    HW176715   8.261   1.389   7.552
24307SOL    HW276716   8.351   1.459   7.434
24308SOL     OW76717   8.109   1.790   8.401
24308SOL    HW176718   8.063   1.878   8.388
24308SOL    HW276719   8.208   1.802   8.394
24309SOL     OW76720   8.307   0.956   8.309
24309SOL    HW176721   8.361   0.887   8.357
24309SOL    HW276722   8.275   1.025   8.375
24310SOL     OW76723   8.531   0.984   7.535
24310SOL    HW176724   8.508   1.037   7.453
24310SOL    HW276725   8.612   0.928   7.516
24311SOL     OW76726   9.309   1.569   8.299
24311SOL    HW176727   9.238   1.557   8.229
24311SOL    HW276728   9.310   1.490   8.359
24312SOL     OW76729   7.669   1.314   9.292
24312SOL    HW176730   7.604   1.241   9.271
24312SOL    HW276731   7.673   1.328   9.390
24313SOL     OW76732   7.527   1.240   8.101
24313SOL    HW176733   7.526   1.193   8.189
24313SOL    HW276734   7.609   1.212   8.050
24314SOL     OW76735   8.120   1.391   9.072
24314SOL    HW176736   8.042   1.341   9.110
24314SOL    HW276737   8.117   1.486   9.103
24315SOL     OW76738   9.272   0.192   8.675
24315SOL    HW176739   9.268   0.102   8.719
24315SOL    HW276740   9.275   0.181   8.576
24316SOL     OW76741   7.876   0.424   7.968
24316SOL    HW176742   7.906   0.352   7.906
24316SOL    HW276743   7.837   0.384   8.051
24317SOL     OW76744   9.153   1.487   8.552
24317SOL    HW176745   9.060   1.462   8.525
24317SOL    HW276746   9.179   1.437   8.634
24318SOL     OW76747   8.260   1.586   8.135
24318SOL    HW176748   8.292   1.596   8.041
24318SOL    HW276749   8.181   1.524   8.137
24319SOL     OW76750   8.872   0.214   8.560
24319SOL    HW176751   8.924   0.149   8.615
24319SOL    HW276752   8.823   0.277   8.621
24320SOL     OW76753   8.449   0.034   8.602
24320SOL    HW176754   8.386  -0.038   8.571
24320SOL    HW276755   8.542  -0.002   8.602
24321SOL     OW76756   8.218   1.330   7.749
24321SOL    HW176757   8.172   1.243   7.766
24321SOL    HW276758   8.309   1.327   7.790
24322SOL     OW76759   8.066   1.567   8.732
24322SOL    HW176760   8.061   1.649   8.789
24322SOL    HW276761   8.155   1.564   8.687
24323SOL     OW76762   8.800   0.052   7.616
24323SOL    HW176763   8.835   0.011   7.532
24323SOL    HW276764   8.710   0.014   7.636
24324SOL     OW76765   8.748   0.453   8.139
24324SOL    HW176766   8.689   0.533   8.143
24324SOL    HW276767   8.763   0.418   8.232
24325SOL     OW76768   9.041   0.221   8.330
24325SOL    HW176769   8.957   0.220   8.384
24325SOL    HW276770   9.043   0.304   8.274
24326SOL     OW76771   7.487   1.077   7.748
24326SOL    HW176772   7.586   1.066   7.739
24326SOL    HW276773   7.447   0.991   7.780
24327SOL     OW76774   8.323   1.646   7.785
24327SOL    HW176775   8.246   1.611   7.731
24327SOL    HW276776   8.291   1.717   7.847
24328SOL     OW76777   7.678   0.628   9.423
24328SOL    HW176778   7.585   0.626   9.460
24328SOL    HW276779   7.679   0.589   9.331
24329SOL     OW76780   9.203   0.607   9.541
24329SOL    HW176781   9.191   0.594   9.442
24329SOL    HW276782   9.173   0.526   9.590
24330SOL     OW76783   7.679   1.713   9.793
24330SOL    HW176784   7.713   1.790   9.847
24330SOL    HW276785   7.723   1.713   9.703
24331SOL     OW76786   8.054   0.964   9.433
24331SOL    HW176787   8.061   1.048   9.379
24331SOL    HW276788   8.100   0.977   9.521
24332SOL     OW76789   7.570   0.643   9.873
24332SOL    HW176790   7.525   0.555   9.890
24332SOL    HW276791   7.569   0.697   9.957
24333SOL     OW76792   9.290   1.767   9.669
24333SOL    HW176793   9.344   1.738   9.749
24333SOL    HW276794   9.320   1.857   9.640
24334SOL     OW76795   7.475   1.596   9.427
24334SOL    HW176796   7.456   1.500   9.448
24334SOL    HW276797   7.442   1.654   9.502
24335SOL     OW76798   9.137   0.922   9.922
24335SOL    HW176799   9.232   0.893   9.930
24335SOL    HW276800   9.129   0.987   9.847
24336SOL     OW76801   9.089   1.108   9.742
24336SOL    HW176802   9.175   1.110   9.690
24336SOL    HW276803   9.103   1.155   9.830
24337SOL     OW76804   8.973   0.999   9.500
24337SOL    HW176805   8.910   0.923   9.513
24337SOL    HW276806   9.021   1.017   9.586
24338SOL     OW76807   8.046   0.729   9.580
24338SOL    HW176808   8.070   0.798   9.512
24338SOL    HW276809   7.968   0.762   9.634
24339SOL     OW76810   9.024   1.662   9.617
24339SOL    HW176811   9.113   1.708   9.620
24339SOL    HW276812   9.003   1.638   9.522
24340SOL     OW76813   8.489   0.701   9.739
24340SOL    HW176814   8.515   0.697   9.835
24340SOL    HW276815   8.404   0.650   9.725
24341SOL     OW76816   7.524   0.811  10.099
24341SOL    HW176817   7.623   0.799  10.108
24341SOL    HW276818   7.500   0.906  10.120
24342SOL     OW76819   8.313   0.348   9.505
24342SOL    HW176820   8.372   0.411   9.456
24342SOL    HW276821   8.332   0.254   9.476
24343SOL     OW76822   8.810   1.144   9.855
24343SOL    HW176823   8.893   1.115   9.807
24343SOL    HW276824   8.761   1.211   9.799
24344SOL     OW76825   8.456   1.456   9.787
24344SOL    HW176826   8.410   1.528   9.735
24344SOL    HW276827   8.452   1.476   9.885
24345SOL     OW76828   7.799   1.801  10.163
24345SOL    HW176829   7.849   1.715  10.169
24345SOL    HW276830   7.864   1.878  10.160
24346SOL     OW76831   7.769   0.943   9.552
24346SOL    HW176832   7.851   0.982   9.510
24346SOL    HW276833   7.742   0.861   9.503
24347SOL     OW76834   8.559   1.776   9.547
24347SOL    HW176835   8.499   1.714   9.597
24347SOL    HW276836   8.590   1.732   9.462
24348SOL     OW76837   9.080   1.377   9.391
24348SOL    HW176838   9.048   1.471   9.381
24348SOL    HW276839   9.004   1.314   9.379
24349SOL     OW76840   7.912   1.743   9.633
24349SOL    HW176841   7.945   1.782   9.719
24349SOL    HW276842   7.988   1.736   9.568
24350SOL     OW76843   8.848   0.107   9.736
24350SOL    HW176844   8.824   0.070   9.646
24350SOL    HW276845   8.947   0.123   9.740
24351SOL     OW76846   7.830   0.700   9.790
24351SOL    HW176847   7.875   0.610   9.787
24351SOL    HW276848   7.736   0.689   9.823
24352SOL     OW76849   8.062   0.122   9.427
24352SOL    HW176850   8.160   0.100   9.434
24352SOL    HW276851   8.031   0.105   9.334
24353SOL     OW76852   7.987   0.064   9.822
24353SOL    HW176853   7.906   0.065   9.880
24353SOL    HW276854   7.990   0.147   9.767
24354SOL     OW76855   8.882   1.188   9.351
24354SOL    HW176856   8.914   1.112   9.408
24354SOL    HW276857   8.790   1.215   9.381
24355SOL     OW76858   7.745   0.035   9.481
24355SOL    HW176859   7.794   0.119   9.460
24355SOL    HW276860   7.807  -0.030   9.526
24356SOL     OW76861   8.383   0.236   9.790
24356SOL    HW176862   8.335   0.277   9.712
24356SOL    HW276863   8.482   0.234   9.771
24357SOL     OW76864   8.719   1.797   9.901
24357SOL    HW176865   8.763   1.861   9.837
24357SOL    HW276866   8.669   1.849   9.971
24358SOL     OW76867   8.480   0.549   9.326
24358SOL    HW176868   8.439   0.631   9.287
24358SOL    HW276869   8.544   0.575   9.399
24359SOL     OW76870   8.314   0.454   9.952
24359SOL    HW176871   8.282   0.526   9.890
24359SOL    HW276872   8.338   0.373   9.899
24360SOL     OW76873   9.305   0.833   9.687
24360SOL    HW176874   9.347   0.769   9.751
24360SOL    HW276875   9.267   0.782   9.609
24361SOL     OW76876   7.936   1.385   9.484
24361SOL    HW176877   7.849   1.370   9.531
24361SOL    HW276878   7.919   1.411   9.389
24362SOL     OW76879   8.838   0.575   9.388
24362SOL    HW176880   8.784   0.554   9.469
24362SOL    HW276881   8.929   0.534   9.397
24363SOL     OW76882   7.975   0.256   9.638
24363SOL    HW176883   8.002   0.197   9.563
24363SOL    HW276884   7.975   0.351   9.607
24364SOL     OW76885   8.153   1.050   9.678
24364SOL    HW176886   8.139   1.057   9.777
24364SOL    HW276887   8.237   0.999   9.660
24365SOL     OW76888   7.815   1.100   9.811
24365SOL    HW176889   7.808   1.183   9.755
24365SOL    HW276890   7.819   1.020   9.751
24366SOL     OW76891   8.700   1.348   9.698
24366SOL    HW176892   8.750   1.425   9.738
24366SOL    HW276893   8.605   1.350   9.730
24367SOL     OW76894   9.030   0.639   9.782
24367SOL    HW176895   8.999   0.700   9.855
24367SOL    HW276896   9.080   0.691   9.713
24368SOL     OW76897   8.657   0.525   9.585
24368SOL    HW176898   8.670   0.441   9.639
24368SOL    HW276899   8.628   0.599   9.645
24369SOL     OW76900   7.755   0.063   9.928
24369SOL    HW176901   7.744   0.157   9.961
24369SOL    HW276902   7.750   0.000  10.005
24370SOL     OW76903   9.070   0.367   9.684
24370SOL    HW176904   9.072   0.291   9.748
24370SOL    HW276905   9.022   0.444   9.724
24371SOL     OW76906   8.988   0.274   9.435
24371SOL    HW176907   8.927   0.199   9.458
24371SOL    HW276908   9.010   0.326   9.518
24372SOL     OW76909   8.751   0.838   9.352
24372SOL    HW176910   8.785   0.745   9.367
24372SOL    HW276911   8.769   0.865   9.257
24373SOL     OW76912   7.456   1.326   9.510
24373SOL    HW176913   7.363   1.347   9.479
24373SOL    HW276914   7.466   1.227   9.523
24374SOL     OW76915   8.263   0.572   9.635
24374SOL    HW176916   8.270   0.483   9.589
24374SOL    HW276917   8.169   0.606   9.627
24375SOL     OW76918   7.921   0.500   9.501
24375SOL    HW176919   7.982   0.580   9.505
24375SOL    HW276920   7.826   0.531   9.508
24376SOL     OW76921   8.750   0.855   9.619
24376SOL    HW176922   8.664   0.824   9.661
24376SOL    HW276923   8.746   0.841   9.520
24377SOL     OW76924   9.174   0.135   9.833
24377SOL    HW176925   9.247   0.118   9.766
24377SOL    HW276926   9.143   0.048   9.871
24378SOL     OW76927   8.836   1.573   9.787
24378SOL    HW176928   8.903   1.585   9.713
24378SOL    HW276929   8.796   1.662   9.810
24379SOL     OW76930   8.120   1.616   9.464
24379SOL    HW176931   8.129   1.626   9.365
24379SOL    HW276932   8.080   1.527   9.485
24380SOL     OW76933   9.289   0.175  10.273
24380SOL    HW176934   9.328   0.090  10.237
24380SOL    HW276935   9.191   0.177  10.254
24381SOL     OW76936   8.642   1.612   9.341
24381SOL    HW176937   8.648   1.519   9.378
24381SOL    HW276938   8.583   1.612   9.261
24382SOL     OW76939   8.364   0.910   9.601
24382SOL    HW176940   8.427   0.948   9.533
24382SOL    HW276941   8.404   0.827   9.640
24383SOL     OW76942   8.952   1.607   9.354
24383SOL    HW176943   8.860   1.644   9.361
24383SOL    HW276944   8.990   1.627   9.264
24384SOL     OW76945   8.038   1.487   9.801
24384SOL    HW176946   8.080   1.429   9.731
24384SOL    HW276947   7.994   1.566   9.757
24385SOL     OW76948   7.703   1.348   9.600
24385SOL    HW176949   7.607   1.349   9.573
24385SOL    HW276950   7.715   1.401   9.684
24386SOL     OW76951   7.523   0.345   9.343
24386SOL    HW176952   7.431   0.317   9.314
24386SOL    HW276953   7.554   0.422   9.287
24387SOL     OW76954   7.520   0.166   9.628
24387SOL    HW176955   7.503   0.249   9.574
24387SOL    HW276956   7.610   0.129   9.606
24388SOL     OW76957   8.631   1.335   9.429
24388SOL    HW176958   8.532   1.324   9.431
24388SOL    HW276959   8.665   1.350   9.522
24389SOL     OW76960   8.673   0.325   9.759
24389SOL    HW176961   8.738   0.251   9.748
24389SOL    HW276962   8.693   0.375   9.843
24390SOL     OW76963   8.042   0.745   9.962
24390SOL    HW176964   8.092   0.830   9.943
24390SOL    HW276965   7.954   0.747   9.914
24391SOL     OW76966   8.307   1.374   9.326
24391SOL    HW176967   8.261   1.389   9.414
24391SOL    HW276968   8.351   1.459   9.296
24392SOL     OW76969   8.531   0.984   9.397
24392SOL    HW176970   8.508   1.037   9.315
24392SOL    HW276971   8.612   0.928   9.378
24393SOL     OW76972   7.876   0.424   9.830
24393SOL    HW176973   7.906   0.352   9.768
24393SOL    HW276974   7.837   0.384   9.913
24394SOL     OW76975   8.218   1.330   9.611
24394SOL    HW176976   8.172   1.243   9.628
24394SOL    HW276977   8.309   1.327   9.652
24395SOL     OW76978   8.800   0.052   9.478
24395SOL    HW176979   8.835   0.011   9.394
24395SOL    HW276980   8.710   0.014   9.498
24396SOL     OW76981   7.487   1.077   9.610
24396SOL    HW176982   7.586   1.066   9.601
24396SOL    HW276983   7.447   0.991   9.642
24397SOL     OW76984   8.323   1.646   9.647
24397SOL    HW176985   8.246   1.611   9.593
24397SOL    HW276986   8.291   1.717   9.709
24398SOL     OW76987   7.678   2.490   0.113
24398SOL    HW176988   7.585   2.488   0.150
24398SOL    HW276989   7.679   2.451   0.021
24399SOL     OW76990   7.673   2.137   0.996
24399SOL    HW176991   7.708   2.120   1.088
24399SOL    HW276992   7.585   2.092   0.984
24400SOL     OW76993   7.467   2.230   0.647
24400SOL    HW176994   7.385   2.273   0.686
24400SOL    HW276995   7.439   2.157   0.584
24401SOL     OW76996   8.583   2.565   0.717
24401SOL    HW176997   8.640   2.643   0.692
24401SOL    HW276998   8.523   2.591   0.793
24402SOL     OW76999   9.203   2.469   0.231
24402SOL    HW177000   9.191   2.456   0.132
24402SOL    HW277001   9.173   2.388   0.280
24403SOL     OW77002   8.298   2.660   1.823
24403SOL    HW177003   8.294   2.736   1.888
24403SOL    HW277004   8.320   2.696   1.732
24404SOL     OW77005   8.133   2.874   0.665
24404SOL    HW177006   8.202   2.858   0.735
24404SOL    HW277007   8.060   2.931   0.703
24405SOL     OW77008   7.783   3.297   1.061
24405SOL    HW177009   7.705   3.266   1.008
24405SOL    HW277010   7.841   3.355   1.004
24406SOL     OW77011   8.908   3.367   1.339
24406SOL    HW177012   8.932   3.461   1.365
24406SOL    HW277013   8.892   3.313   1.421
24407SOL     OW77014   7.886   2.254   1.499
24407SOL    HW177015   7.968   2.198   1.508
24407SOL    HW277016   7.805   2.196   1.503
24408SOL     OW77017   9.051   2.309   0.737
24408SOL    HW177018   8.977   2.355   0.687
24408SOL    HW277019   9.102   2.377   0.790
24409SOL     OW77020   7.679   3.575   0.483
24409SOL    HW177021   7.713   3.652   0.537
24409SOL    HW277022   7.723   3.575   0.393
24410SOL     OW77023   8.575   3.203   1.690
24410SOL    HW177024   8.622   3.203   1.778
24410SOL    HW277025   8.527   3.116   1.679
24411SOL     OW77026   7.678   3.296   0.538
24411SOL    HW177027   7.652   3.392   0.538
24411SOL    HW277028   7.607   3.242   0.583
24412SOL     OW77029   7.688   2.953   0.886
24412SOL    HW177030   7.702   2.869   0.938
24412SOL    HW277031   7.633   3.017   0.941
24413SOL     OW77032   9.042   1.976   1.480
24413SOL    HW177033   9.024   2.043   1.408
24413SOL    HW277034   9.039   2.022   1.569
24414SOL     OW77035   7.570   2.505   0.563
24414SOL    HW177036   7.525   2.417   0.580
24414SOL    HW277037   7.569   2.559   0.647
24415SOL     OW77038   9.290   3.629   0.359
24415SOL    HW177039   9.344   3.600   0.439
24415SOL    HW277040   9.320   3.719   0.330
24416SOL     OW77041   9.137   2.784   0.612
24416SOL    HW177042   9.232   2.755   0.620
24416SOL    HW277043   9.129   2.849   0.537
24417SOL     OW77044   9.089   2.970   0.432
24417SOL    HW177045   9.175   2.972   0.380
24417SOL    HW277046   9.103   3.017   0.520
24418SOL     OW77047   7.561   2.599   1.597
24418SOL    HW177048   7.649   2.586   1.642
24418SOL    HW277049   7.548   2.696   1.575
24419SOL     OW77050   8.061   3.227   0.726
24419SOL    HW177051   8.012   3.140   0.735
24419SOL    HW277052   8.038   3.270   0.639
24420SOL     OW77053   8.741   3.090   1.423
24420SOL    HW177054   8.778   3.017   1.365
24420SOL    HW277055   8.793   3.095   1.508
24421SOL     OW77056   8.257   1.866   0.502
24421SOL    HW177057   8.297   1.957   0.493
24421SOL    HW277058   8.157   1.874   0.508
24422SOL     OW77059   7.645   2.838   1.264
24422SOL    HW177060   7.734   2.793   1.250
24422SOL    HW277061   7.572   2.773   1.245
24423SOL     OW77062   8.973   2.861   0.190
24423SOL    HW177063   8.910   2.785   0.203
24423SOL    HW277064   9.021   2.879   0.276
24424SOL     OW77065   8.635   3.654   1.616
24424SOL    HW177066   8.659   3.714   1.540
24424SOL    HW277067   8.642   3.559   1.586
24425SOL     OW77068   7.765   2.113   1.801
24425SOL    HW177069   7.836   2.184   1.807
24425SOL    HW277070   7.677   2.152   1.829
24426SOL     OW77071   8.914   3.279   0.953
24426SOL    HW177072   8.855   3.285   1.033
24426SOL    HW277073   8.899   3.191   0.907
24427SOL     OW77074   8.729   2.207   0.944
24427SOL    HW177075   8.643   2.157   0.931
24427SOL    HW277076   8.791   2.153   1.000
24428SOL     OW77077   9.024   3.524   0.307
24428SOL    HW177078   9.113   3.570   0.310
24428SOL    HW277079   9.003   3.500   0.212
24429SOL     OW77080   8.255   2.467   1.465
24429SOL    HW177081   8.208   2.464   1.554
24429SOL    HW277082   8.204   2.412   1.399
24430SOL     OW77083   8.842   2.331   1.674
24430SOL    HW177084   8.822   2.374   1.762
24430SOL    HW277085   8.920   2.269   1.683
24431SOL     OW77086   8.421   2.752   1.572
24431SOL    HW177087   8.467   2.668   1.543
24431SOL    HW277088   8.365   2.786   1.497
24432SOL     OW77089   8.439   2.272   1.242
24432SOL    HW177090   8.362   2.306   1.296
24432SOL    HW277091   8.405   2.221   1.163
24433SOL     OW77092   8.489   2.563   0.429
24433SOL    HW177093   8.515   2.559   0.525
24433SOL    HW277094   8.404   2.512   0.415
24434SOL     OW77095   7.524   2.673   0.789
24434SOL    HW177096   7.623   2.661   0.798
24434SOL    HW277097   7.500   2.768   0.810
24435SOL     OW77098   7.578   3.683   1.571
24435SOL    HW177099   7.568   3.668   1.670
24435SOL    HW277100   7.492   3.719   1.535
24436SOL     OW77101   8.313   2.210   0.195
24436SOL    HW177102   8.372   2.273   0.146
24436SOL    HW277103   8.332   2.116   0.166
24437SOL     OW77104   9.167   2.447   1.831
24437SOL    HW177105   9.141   2.536   1.795
24437SOL    HW277106   9.165   2.379   1.758
24438SOL     OW77107   8.810   3.006   0.545
24438SOL    HW177108   8.893   2.977   0.497
24438SOL    HW277109   8.761   3.073   0.489
24439SOL     OW77110   7.998   2.058   0.885
24439SOL    HW177111   7.993   2.053   0.985
24439SOL    HW277112   8.000   2.154   0.856
24440SOL     OW77113   8.456   3.318   0.477
24440SOL    HW177114   8.410   3.390   0.425
24440SOL    HW277115   8.452   3.338   0.575
24441SOL     OW77116   7.799   3.663   0.853
24441SOL    HW177117   7.849   3.577   0.859
24441SOL    HW277118   7.864   3.740   0.850
24442SOL     OW77119   9.243   2.928   0.873
24442SOL    HW177120   9.181   2.913   0.797
24442SOL    HW277121   9.191   2.939   0.958
24443SOL     OW77122   8.675   3.412   1.506
24443SOL    HW177123   8.681   3.335   1.570
24443SOL    HW277124   8.623   3.386   1.426
24444SOL     OW77125   7.769   2.805   0.242
24444SOL    HW177126   7.851   2.844   0.200
24444SOL    HW277127   7.742   2.723   0.193
24445SOL     OW77128   8.906   2.597   0.728
24445SOL    HW177129   8.901   2.532   0.803
24445SOL    HW277130   8.986   2.656   0.741
24446SOL     OW77131   7.909   3.128   1.727
24446SOL    HW177132   7.859   3.129   1.641
24446SOL    HW277133   7.846   3.110   1.803
24447SOL     OW77134   7.650   2.147   1.498
24447SOL    HW177135   7.570   2.207   1.485
24447SOL    HW277136   7.640   2.098   1.584
24448SOL     OW77137   9.080   3.239   0.081
24448SOL    HW177138   9.048   3.333   0.071
24448SOL    HW277139   9.004   3.176   0.069
24449SOL     OW77140   7.912   3.605   0.323
24449SOL    HW177141   7.945   3.644   0.409
24449SOL    HW277142   7.988   3.598   0.258
24450SOL     OW77143   8.848   1.969   0.426
24450SOL    HW177144   8.824   1.932   0.336
24450SOL    HW277145   8.947   1.985   0.430
24451SOL     OW77146   7.697   3.647   1.241
24451SOL    HW177147   7.754   3.582   1.291
24451SOL    HW277148   7.681   3.614   1.148
24452SOL     OW77149   8.388   3.560   0.904
24452SOL    HW177150   8.468   3.503   0.925
24452SOL    HW277151   8.339   3.520   0.827
24453SOL     OW77152   7.830   2.562   0.480
24453SOL    HW177153   7.875   2.472   0.477
24453SOL    HW277154   7.736   2.551   0.513
24454SOL     OW77155   8.995   2.084   1.729
24454SOL    HW177156   8.990   2.121   1.821
24454SOL    HW277157   8.923   2.015   1.717
24455SOL     OW77158   8.062   1.984   0.117
24455SOL    HW177159   8.160   1.962   0.124
24455SOL    HW277160   8.031   1.967   0.024
24456SOL     OW77161   8.229   2.126   1.749
24456SOL    HW177162   8.296   2.065   1.792
24456SOL    HW277163   8.156   2.145   1.814
24457SOL     OW77164   8.799   2.452   1.433
24457SOL    HW177165   8.827   2.409   1.518
24457SOL    HW277166   8.824   2.548   1.434
24458SOL     OW77167   8.251   3.264   0.924
24458SOL    HW177168   8.341   3.278   0.882
24458SOL    HW277169   8.180   3.266   0.853
24459SOL     OW77170   8.370   2.365   0.899
24459SOL    HW177171   8.345   2.356   0.803
24459SOL    HW277172   8.418   2.283   0.930
24460SOL     OW77173   7.987   1.926   0.512
24460SOL    HW177174   7.906   1.927   0.570
24460SOL    HW277175   7.990   2.009   0.457
24461SOL     OW77176   8.882   3.050   0.041
24461SOL    HW177177   8.914   2.974   0.098
24461SOL    HW277178   8.790   3.077   0.071
24462SOL     OW77179   8.383   2.098   0.480
24462SOL    HW177180   8.335   2.139   0.402
24462SOL    HW277181   8.482   2.096   0.461
24463SOL     OW77182   8.524   2.545   1.464
24463SOL    HW177183   8.444   2.484   1.467
24463SOL    HW277184   8.605   2.492   1.440
24464SOL     OW77185   7.907   3.014   0.741
24464SOL    HW177186   7.836   2.987   0.806
24464SOL    HW277187   7.881   2.986   0.648
24465SOL     OW77188   8.480   2.411   0.016
24465SOL    HW177189   8.439   2.493  -0.023
24465SOL    HW277190   8.544   2.437   0.089
24466SOL     OW77191   7.526   2.418   1.386
24466SOL    HW177192   7.618   2.417   1.345
24466SOL    HW277193   7.520   2.492   1.453
24467SOL     OW77194   8.009   2.084   1.147
24467SOL    HW177195   8.047   2.000   1.184
24467SOL    HW277196   7.921   2.103   1.191
24468SOL     OW77197   8.314   2.316   0.642
24468SOL    HW177198   8.282   2.388   0.580
24468SOL    HW277199   8.338   2.235   0.589
24469SOL     OW77200   8.877   3.035   0.867
24469SOL    HW177201   8.822   2.951   0.860
24469SOL    HW277202   8.903   3.064   0.775
24470SOL     OW77203   8.914   2.452   0.992
24470SOL    HW177204   8.884   2.357   0.999
24470SOL    HW277205   8.987   2.468   1.058
24471SOL     OW77206   9.305   2.695   0.377
24471SOL    HW177207   9.347   2.631   0.441
24471SOL    HW277208   9.267   2.644   0.299
24472SOL     OW77209   9.112   3.142   0.657
24472SOL    HW177210   9.211   3.150   0.671
24472SOL    HW277211   9.067   3.226   0.688
24473SOL     OW77212   8.838   2.437   0.078
24473SOL    HW177213   8.784   2.416   0.159
24473SOL    HW277214   8.929   2.396   0.087
24474SOL     OW77215   7.975   2.118   0.328
24474SOL    HW177216   8.002   2.059   0.253
24474SOL    HW277217   7.975   2.213   0.297
24475SOL     OW77218   9.202   3.085   1.588
24475SOL    HW177219   9.293   3.046   1.575
24475SOL    HW277220   9.210   3.181   1.612
24476SOL     OW77221   9.040   3.491   1.625
24476SOL    HW177222   9.067   3.525   1.535
24476SOL    HW277223   9.119   3.453   1.671
24477SOL     OW77224   8.559   3.057   1.100
24477SOL    HW177225   8.519   3.101   1.181
24477SOL    HW277226   8.518   3.094   1.017
24478SOL     OW77227   9.086   2.961   1.079
24478SOL    HW177228   9.091   3.042   1.138
24478SOL    HW277229   9.000   2.963   1.028
24479SOL     OW77230   8.363   1.951   1.402
24479SOL    HW177231   8.388   1.931   1.307
24479SOL    HW277232   8.435   2.007   1.444
24480SOL     OW77233   8.153   2.912   0.368
24480SOL    HW177234   8.139   2.919   0.467
24480SOL    HW277235   8.237   2.861   0.350
24481SOL     OW77236   7.858   2.675   1.251
24481SOL    HW177237   7.944   2.687   1.301
24481SOL    HW277238   7.816   2.588   1.278
24482SOL     OW77239   8.722   2.248   1.262
24482SOL    HW177240   8.743   2.322   1.326
24482SOL    HW277241   8.633   2.265   1.219
24483SOL     OW77242   7.512   3.426   1.331
24483SOL    HW177243   7.466   3.508   1.297
24483SOL    HW277244   7.610   3.445   1.340
24484SOL     OW77245   7.815   2.962   0.501
24484SOL    HW177246   7.808   3.045   0.445
24484SOL    HW277247   7.819   2.882   0.441
24485SOL     OW77248   8.014   2.399   0.865
24485SOL    HW177249   8.026   2.465   0.791
24485SOL    HW277250   8.060   2.433   0.948
24486SOL     OW77251   8.700   3.210   0.388
24486SOL    HW177252   8.750   3.287   0.428
24486SOL    HW277253   8.605   3.212   0.420
24487SOL     OW77254   8.720   3.307   1.142
24487SOL    HW177255   8.767   3.320   1.229
24487SOL    HW277256   8.654   3.233   1.151
24488SOL     OW77257   9.030   2.501   0.472
24488SOL    HW177258   8.999   2.562   0.545
24488SOL    HW277259   9.080   2.553   0.403
24489SOL     OW77260   7.802   3.372   1.329
24489SOL    HW177261   7.781   3.328   1.242
24489SOL    HW277262   7.899   3.398   1.332
24490SOL     OW77263   7.850   2.613   1.598
24490SOL    HW177264   7.918   2.668   1.551
24490SOL    HW277265   7.890   2.525   1.625
24491SOL     OW77266   9.035   2.641   1.670
24491SOL    HW177267   8.943   2.679   1.665
24491SOL    HW277268   9.095   2.688   1.605
24492SOL     OW77269   8.461   1.967   1.770
24492SOL    HW177270   8.467   2.052   1.718
24492SOL    HW277271   8.493   1.891   1.713
24493SOL     OW77272   7.952   1.912   1.740
24493SOL    HW177273   7.910   1.855   1.670
24493SOL    HW277274   7.886   1.981   1.772
24494SOL     OW77275   8.808   2.724   1.045
24494SOL    HW177276   8.733   2.724   0.979
24494SOL    HW277277   8.845   2.632   1.054
24495SOL     OW77278   8.657   2.387   0.275
24495SOL    HW177279   8.670   2.303   0.329
24495SOL    HW277280   8.628   2.461   0.335
24496SOL     OW77281   7.755   2.075   1.231
24496SOL    HW177282   7.732   2.112   1.321
24496SOL    HW277283   7.725   1.980   1.225
24497SOL     OW77284   7.485   3.172   1.282
24497SOL    HW177285   7.538   3.123   1.350
24497SOL    HW277286   7.507   3.270   1.287
24498SOL     OW77287   8.180   2.496   1.064
24498SOL    HW177288   8.239   2.470   0.988
24498SOL    HW277289   8.152   2.592   1.053
24499SOL     OW77290   9.176   2.797   1.854
24499SOL    HW177291   9.130   2.790   1.765
24499SOL    HW277292   9.114   2.841   1.920
24500SOL     OW77293   7.755   1.925   0.618
24500SOL    HW177294   7.744   2.019   0.651
24500SOL    HW277295   7.750   1.862   0.695
24501SOL     OW77296   9.070   2.229   0.374
24501SOL    HW177297   9.072   2.153   0.438
24501SOL    HW277298   9.022   2.306   0.414
24502SOL     OW77299   8.471   2.628   0.966
24502SOL    HW177300   8.486   2.649   1.062
24502SOL    HW277301   8.441   2.533   0.957
24503SOL     OW77302   8.428   3.435   1.700
24503SOL    HW177303   8.408   3.479   1.612
24503SOL    HW277304   8.467   3.344   1.684
24504SOL     OW77305   9.307   3.380   1.605
24504SOL    HW177306   9.321   3.407   1.510
24504SOL    HW277307   9.390   3.402   1.658
24505SOL     OW77308   7.798   2.760   1.804
24505SOL    HW177309   7.874   2.804   1.852
24505SOL    HW277310   7.833   2.713   1.722
24506SOL     OW77311   8.988   2.136   0.125
24506SOL    HW177312   8.927   2.061   0.148
24506SOL    HW277313   9.010   2.188   0.208
24507SOL     OW77314   8.516   3.195   0.849
24507SOL    HW177315   8.523   3.111   0.794
24507SOL    HW277316   8.578   3.264   0.813
24508SOL     OW77317   7.767   2.672   0.949
24508SOL    HW177318   7.860   2.708   0.954
24508SOL    HW277319   7.761   2.587   1.001
24509SOL     OW77320   7.787   2.371   1.006
24509SOL    HW177321   7.735   2.288   0.989
24509SOL    HW277322   7.864   2.376   0.942
24510SOL     OW77323   8.586   2.242   1.678
24510SOL    HW177324   8.541   2.305   1.742
24510SOL    HW277325   8.679   2.273   1.661
24511SOL     OW77326   8.608   2.069   1.477
24511SOL    HW177327   8.608   2.133   1.554
24511SOL    HW277328   8.636   2.117   1.394
24512SOL     OW77329   7.536   3.663   0.927
24512SOL    HW177330   7.494   3.577   0.900
24512SOL    HW277331   7.630   3.666   0.893
24513SOL     OW77332   7.952   3.430   0.910
24513SOL    HW177333   8.018   3.504   0.919
24513SOL    HW277334   7.996   3.351   0.868
24514SOL     OW77335   8.450   2.658   1.238
24514SOL    HW177336   8.491   2.626   1.324
24514SOL    HW277337   8.354   2.631   1.235
24515SOL     OW77338   7.488   2.406   1.114
24515SOL    HW177339   7.573   2.373   1.073
24515SOL    HW277340   7.501   2.421   1.212
24516SOL     OW77341   7.637   2.382   1.722
24516SOL    HW177342   7.696   2.342   1.652
24516SOL    HW277343   7.579   2.453   1.681
24517SOL     OW77344   8.817   2.812   1.660
24517SOL    HW177345   8.856   2.901   1.680
24517SOL    HW277346   8.827   2.792   1.563
24518SOL     OW77347   8.263   2.434   0.325
24518SOL    HW177348   8.270   2.345   0.279
24518SOL    HW277349   8.169   2.468   0.317
24519SOL     OW77350   9.105   2.466   1.206
24519SOL    HW177351   9.067   2.397   1.268
24519SOL    HW277352   9.187   2.430   1.162
24520SOL     OW77353   7.700   3.426   1.744
24520SOL    HW177354   7.670   3.483   1.820
24520SOL    HW277355   7.693   3.329   1.770
24521SOL     OW77356   8.119   2.326   1.269
24521SOL    HW177357   8.085   2.237   1.239
24521SOL    HW277358   8.145   2.380   1.189
24522SOL     OW77359   8.378   3.540   1.465
24522SOL    HW177360   8.354   3.522   1.370
24522SOL    HW277361   8.408   3.634   1.475
24523SOL     OW77362   7.921   2.362   0.191
24523SOL    HW177363   7.982   2.442   0.195
24523SOL    HW277364   7.826   2.393   0.198
24524SOL     OW77365   7.607   2.999   1.466
24524SOL    HW177366   7.629   2.938   1.542
24524SOL    HW277367   7.617   2.950   1.380
24525SOL     OW77368   8.795   2.921   1.234
24525SOL    HW177369   8.819   2.858   1.160
24525SOL    HW277370   8.705   2.961   1.216
24526SOL     OW77371   8.750   2.717   0.309
24526SOL    HW177372   8.664   2.686   0.351
24526SOL    HW277373   8.746   2.703   0.210
24527SOL     OW77374   9.207   3.609   1.154
24527SOL    HW177375   9.268   3.639   1.081
24527SOL    HW277376   9.169   3.520   1.132
24528SOL     OW77377   8.700   3.593   1.128
24528SOL    HW177378   8.784   3.598   1.074
24528SOL    HW277379   8.677   3.497   1.146
24529SOL     OW77380   7.531   3.120   1.022
24529SOL    HW177381   7.526   3.119   1.122
24529SOL    HW277382   7.448   3.079   0.984
24530SOL     OW77383   8.136   3.524   1.716
24530SOL    HW177384   8.080   3.605   1.725
24530SOL    HW277385   8.188   3.528   1.630
24531SOL     OW77386   8.351   1.948   0.133
24531SOL    HW177387   8.402   1.949   0.047
24531SOL    HW277388   8.407   1.906   0.204
24532SOL     OW77389   9.174   1.997   0.523
24532SOL    HW177390   9.247   1.980   0.456
24532SOL    HW277391   9.143   1.910   0.561
24533SOL     OW77392   7.578   3.656   1.851
24533SOL    HW177393   7.537   3.582   1.904
24533SOL    HW277394   7.642   3.707   1.909
24534SOL     OW77395   8.728   2.789   0.672
24534SOL    HW177396   8.788   2.708   0.674
24534SOL    HW277397   8.768   2.858   0.612
24535SOL     OW77398   8.120   3.478   0.154
24535SOL    HW177399   8.129   3.488   0.055
24535SOL    HW277400   8.080   3.389   0.175
24536SOL     OW77401   9.098   3.582   1.394
24536SOL    HW177402   9.151   3.592   1.310
24536SOL    HW277403   9.071   3.672   1.428
24537SOL     OW77404   9.289   2.037   0.963
24537SOL    HW177405   9.328   1.952   0.927
24537SOL    HW277406   9.191   2.039   0.944
24538SOL     OW77407   7.711   2.188   0.720
24538SOL    HW177408   7.632   2.239   0.686
24538SOL    HW277409   7.702   2.173   0.818
24539SOL     OW77410   8.642   3.474   0.031
24539SOL    HW177411   8.648   3.381   0.068
24539SOL    HW277412   8.583   3.474  -0.049
24540SOL     OW77413   8.364   2.772   0.291
24540SOL    HW177414   8.427   2.810   0.223
24540SOL    HW277415   8.404   2.689   0.330
24541SOL     OW77416   7.820   3.150   1.490
24541SOL    HW177417   7.807   3.243   1.456
24541SOL    HW277418   7.736   3.098   1.477
24542SOL     OW77419   9.062   3.154   1.289
24542SOL    HW177420   9.122   3.157   1.369
24542SOL    HW277421   8.987   3.218   1.302
24543SOL     OW77422   8.487   2.960   0.696
24543SOL    HW177423   8.417   2.913   0.750
24543SOL    HW277424   8.546   2.892   0.653
24544SOL     OW77425   8.462   2.098   0.971
24544SOL    HW177426   8.454   2.062   0.878
24544SOL    HW277427   8.460   2.022   1.036
24545SOL     OW77428   8.038   3.349   0.491
24545SOL    HW177429   8.080   3.291   0.421
24545SOL    HW277430   7.994   3.428   0.447
24546SOL     OW77431   9.157   2.247   1.381
24546SOL    HW177432   9.230   2.316   1.385
24546SOL    HW277433   9.185   2.172   1.322
24547SOL     OW77434   7.553   2.875   1.726
24547SOL    HW177435   7.476   2.842   1.780
24547SOL    HW277436   7.638   2.845   1.768
24548SOL     OW77437   8.120   2.065   1.489
24548SOL    HW177438   8.210   2.049   1.449
24548SOL    HW277439   8.128   2.070   1.588
24549SOL     OW77440   7.523   2.207   0.033
24549SOL    HW177441   7.431   2.179   0.004
24549SOL    HW277442   7.554   2.284  -0.023
24550SOL     OW77443   8.888   2.718   1.398
24550SOL    HW177444   8.831   2.770   1.335
24550SOL    HW277445   8.984   2.730   1.374
24551SOL     OW77446   7.520   2.028   0.318
24551SOL    HW177447   7.503   2.111   0.264
24551SOL    HW277448   7.610   1.991   0.296
24552SOL     OW77449   8.631   3.197   0.119
24552SOL    HW177450   8.532   3.186   0.121
24552SOL    HW277451   8.665   3.212   0.212
24553SOL     OW77452   8.061   2.704   1.431
24553SOL    HW177453   8.117   2.785   1.414
24553SOL    HW277454   8.120   2.624   1.434
24554SOL     OW77455   8.164   2.427   1.708
24554SOL    HW177456   8.183   2.492   1.782
24554SOL    HW277457   8.224   2.347   1.717
24555SOL     OW77458   8.898   3.082   1.633
24555SOL    HW177459   8.889   3.072   1.732
24555SOL    HW277460   8.994   3.075   1.607
24556SOL     OW77461   9.122   2.745   1.254
24556SOL    HW177462   9.095   2.656   1.217
24556SOL    HW277463   9.123   2.813   1.181
24557SOL     OW77464   8.673   2.187   0.449
24557SOL    HW177465   8.738   2.113   0.438
24557SOL    HW277466   8.693   2.237   0.533
24558SOL     OW77467   8.042   2.607   0.652
24558SOL    HW177468   8.092   2.692   0.633
24558SOL    HW277469   7.954   2.609   0.604
24559SOL     OW77470   9.225   2.204   1.642
24559SOL    HW177471   9.208   2.235   1.548
24559SOL    HW277472   9.141   2.167   1.680
24560SOL     OW77473   9.178   2.796   1.517
24560SOL    HW177474   9.216   2.887   1.532
24560SOL    HW277475   9.170   2.779   1.418
24561SOL     OW77476   8.307   3.236   0.016
24561SOL    HW177477   8.261   3.251   0.104
24561SOL    HW277478   8.351   3.321  -0.014
24562SOL     OW77479   8.109   3.652   0.953
24562SOL    HW177480   8.063   3.740   0.940
24562SOL    HW277481   8.208   3.664   0.946
24563SOL     OW77482   8.307   2.818   0.861
24563SOL    HW177483   8.361   2.749   0.909
24563SOL    HW277484   8.275   2.887   0.927
24564SOL     OW77485   8.531   2.846   0.087
24564SOL    HW177486   8.508   2.899   0.005
24564SOL    HW277487   8.612   2.790   0.068
24565SOL     OW77488   7.669   3.176   1.844
24565SOL    HW177489   7.604   3.103   1.823
24565SOL    HW277490   7.673   3.190   1.942
24566SOL     OW77491   7.527   3.102   0.653
24566SOL    HW177492   7.526   3.055   0.741
24566SOL    HW277493   7.609   3.074   0.602
24567SOL     OW77494   8.120   3.253   1.624
24567SOL    HW177495   8.042   3.203   1.662
24567SOL    HW277496   8.117   3.348   1.655
24568SOL     OW77497   9.272   2.054   1.227
24568SOL    HW177498   9.268   1.964   1.271
24568SOL    HW277499   9.275   2.043   1.128
24569SOL     OW77500   7.876   2.286   0.520
24569SOL    HW177501   7.906   2.214   0.458
24569SOL    HW277502   7.837   2.246   0.603
24570SOL     OW77503   9.153   3.349   1.104
24570SOL    HW177504   9.060   3.324   1.077
24570SOL    HW277505   9.179   3.299   1.186
24571SOL     OW77506   7.765   2.409   1.280
24571SOL    HW177507   7.803   2.350   1.352
24571SOL    HW277508   7.805   2.383   1.192
24572SOL     OW77509   8.260   3.448   0.687
24572SOL    HW177510   8.292   3.458   0.593
24572SOL    HW277511   8.181   3.386   0.689
24573SOL     OW77512   8.872   2.076   1.112
24573SOL    HW177513   8.924   2.011   1.167
24573SOL    HW277514   8.823   2.139   1.173
24574SOL     OW77515   8.449   1.896   1.154
24574SOL    HW177516   8.386   1.824   1.123
24574SOL    HW277517   8.542   1.860   1.154
24575SOL     OW77518   8.218   3.192   0.301
24575SOL    HW177519   8.172   3.105   0.318
24575SOL    HW277520   8.309   3.189   0.342
24576SOL     OW77521   8.066   3.429   1.284
24576SOL    HW177522   8.061   3.511   1.341
24576SOL    HW277523   8.155   3.426   1.239
24577SOL     OW77524   8.800   1.914   0.168
24577SOL    HW177525   8.835   1.873   0.084
24577SOL    HW277526   8.710   1.876   0.188
24578SOL     OW77527   8.748   2.315   0.691
24578SOL    HW177528   8.689   2.395   0.695
24578SOL    HW277529   8.763   2.280   0.784
24579SOL     OW77530   9.041   2.083   0.882
24579SOL    HW177531   8.957   2.082   0.936
24579SOL    HW277532   9.043   2.166   0.826
24580SOL     OW77533   7.487   2.939   0.300
24580SOL    HW177534   7.586   2.928   0.291
24580SOL    HW277535   7.447   2.853   0.332
24581SOL     OW77536   8.323   3.508   0.337
24581SOL    HW177537   8.246   3.473   0.283
24581SOL    HW277538   8.291   3.579   0.399
24582SOL     OW77539   7.678   2.490   1.975
24582SOL    HW177540   7.585   2.488   2.012
24582SOL    HW277541   7.679   2.451   1.883
24583SOL     OW77542   7.673   2.137   2.858
24583SOL    HW177543   7.708   2.120   2.950
24583SOL    HW277544   7.585   2.092   2.846
24584SOL     OW77545   7.467   2.230   2.509
24584SOL    HW177546   7.385   2.273   2.548
24584SOL    HW277547   7.439   2.157   2.446
24585SOL     OW77548   8.017   3.137   3.027
24585SOL    HW177549   7.924   3.130   2.990
24585SOL    HW277550   8.028   3.226   3.071
24586SOL     OW77551   9.003   3.373   2.565
24586SOL    HW177552   8.946   3.357   2.646
24586SOL    HW277553   8.944   3.383   2.485
24587SOL     OW77554   8.583   2.565   2.579
24587SOL    HW177555   8.640   2.643   2.554
24587SOL    HW277556   8.523   2.591   2.655
24588SOL     OW77557   8.216   3.006   2.885
24588SOL    HW177558   8.138   3.023   2.945
24588SOL    HW277559   8.250   3.093   2.849
24589SOL     OW77560   8.298   2.660   3.685
24589SOL    HW177561   8.294   2.736   3.750
24589SOL    HW277562   8.320   2.696   3.594
24590SOL     OW77563   8.133   2.874   2.527
24590SOL    HW177564   8.202   2.858   2.597
24590SOL    HW277565   8.060   2.931   2.565
24591SOL     OW77566   8.134   3.023   3.665
24591SOL    HW177567   8.194   3.102   3.679
24591SOL    HW277568   8.048   3.054   3.624
24592SOL     OW77569   7.783   3.297   2.923
24592SOL    HW177570   7.705   3.266   2.870
24592SOL    HW277571   7.841   3.355   2.866
24593SOL     OW77572   8.908   3.367   3.201
24593SOL    HW177573   8.932   3.461   3.227
24593SOL    HW277574   8.892   3.313   3.283
24594SOL     OW77575   7.886   2.254   3.361
24594SOL    HW177576   7.968   2.198   3.370
24594SOL    HW277577   7.805   2.196   3.365
24595SOL     OW77578   7.679   3.575   2.345
24595SOL    HW177579   7.713   3.652   2.399
24595SOL    HW277580   7.723   3.575   2.255
24596SOL     OW77581   8.575   3.203   3.552
24596SOL    HW177582   8.622   3.203   3.640
24596SOL    HW277583   8.527   3.116   3.541
24597SOL     OW77584   7.678   3.296   2.400
24597SOL    HW177585   7.652   3.392   2.400
24597SOL    HW277586   7.607   3.242   2.445
24598SOL     OW77587   7.688   2.953   2.748
24598SOL    HW177588   7.702   2.869   2.800
24598SOL    HW277589   7.633   3.017   2.803
24599SOL     OW77590   8.068   3.648   3.301
24599SOL    HW177591   7.976   3.631   3.336
24599SOL    HW277592   8.096   3.740   3.327
24600SOL     OW77593   9.042   1.976   3.342
24600SOL    HW177594   9.024   2.043   3.270
24600SOL    HW277595   9.039   2.022   3.431
24601SOL     OW77596   7.570   2.505   2.425
24601SOL    HW177597   7.525   2.417   2.442
24601SOL    HW277598   7.569   2.559   2.509
24602SOL     OW77599   9.290   3.629   2.221
24602SOL    HW177600   9.344   3.600   2.301
24602SOL    HW277601   9.320   3.719   2.192
24603SOL     OW77602   7.475   3.458   1.979
24603SOL    HW177603   7.456   3.362   2.000
24603SOL    HW277604   7.442   3.516   2.054
24604SOL     OW77605   9.137   2.784   2.474
24604SOL    HW177606   9.232   2.755   2.482
24604SOL    HW277607   9.129   2.849   2.399
24605SOL     OW77608   9.089   2.970   2.294
24605SOL    HW177609   9.175   2.972   2.242
24605SOL    HW277610   9.103   3.017   2.382
24606SOL     OW77611   7.561   2.599   3.459
24606SOL    HW177612   7.649   2.586   3.504
24606SOL    HW277613   7.548   2.696   3.437
24607SOL     OW77614   8.061   3.227   2.588
24607SOL    HW177615   8.012   3.140   2.597
24607SOL    HW277616   8.038   3.270   2.501
24608SOL     OW77617   8.741   3.090   3.285
24608SOL    HW177618   8.778   3.017   3.227
24608SOL    HW277619   8.793   3.095   3.370
24609SOL     OW77620   8.257   1.866   2.364
24609SOL    HW177621   8.297   1.957   2.355
24609SOL    HW277622   8.157   1.874   2.370
24610SOL     OW77623   7.645   2.838   3.126
24610SOL    HW177624   7.734   2.793   3.112
24610SOL    HW277625   7.572   2.773   3.107
24611SOL     OW77626   8.973   2.861   2.052
24611SOL    HW177627   8.910   2.785   2.065
24611SOL    HW277628   9.021   2.879   2.138
24612SOL     OW77629   7.765   2.113   3.663
24612SOL    HW177630   7.836   2.184   3.669
24612SOL    HW277631   7.677   2.152   3.691
24613SOL     OW77632   8.914   3.279   2.815
24613SOL    HW177633   8.855   3.285   2.895
24613SOL    HW277634   8.899   3.191   2.769
24614SOL     OW77635   9.115   3.576   2.434
24614SOL    HW177636   9.074   3.553   2.346
24614SOL    HW277637   9.097   3.502   2.499
24615SOL     OW77638   8.046   2.591   2.132
24615SOL    HW177639   8.070   2.660   2.064
24615SOL    HW277640   7.968   2.624   2.186
24616SOL     OW77641   8.729   2.207   2.806
24616SOL    HW177642   8.643   2.157   2.793
24616SOL    HW277643   8.791   2.153   2.862
24617SOL     OW77644   9.024   3.524   2.169
24617SOL    HW177645   9.113   3.570   2.172
24617SOL    HW277646   9.003   3.500   2.074
24618SOL     OW77647   8.255   2.467   3.327
24618SOL    HW177648   8.208   2.464   3.416
24618SOL    HW277649   8.204   2.412   3.261
24619SOL     OW77650   8.842   2.331   3.536
24619SOL    HW177651   8.822   2.374   3.624
24619SOL    HW277652   8.920   2.269   3.545
24620SOL     OW77653   8.439   2.272   3.104
24620SOL    HW177654   8.362   2.306   3.158
24620SOL    HW277655   8.405   2.221   3.025
24621SOL     OW77656   8.489   2.563   2.291
24621SOL    HW177657   8.515   2.559   2.387
24621SOL    HW277658   8.404   2.512   2.277
24622SOL     OW77659   7.524   2.673   2.651
24622SOL    HW177660   7.623   2.661   2.660
24622SOL    HW277661   7.500   2.768   2.672
24623SOL     OW77662   7.578   3.683   3.433
24623SOL    HW177663   7.568   3.668   3.532
24623SOL    HW277664   7.492   3.719   3.397
24624SOL     OW77665   8.313   2.210   2.057
24624SOL    HW177666   8.372   2.273   2.008
24624SOL    HW277667   8.332   2.116   2.028
24625SOL     OW77668   9.167   2.447   3.693
24625SOL    HW177669   9.141   2.536   3.657
24625SOL    HW277670   9.165   2.379   3.620
24626SOL     OW77671   8.810   3.006   2.407
24626SOL    HW177672   8.893   2.977   2.359
24626SOL    HW277673   8.761   3.073   2.351
24627SOL     OW77674   7.998   2.058   2.747
24627SOL    HW177675   7.993   2.053   2.847
24627SOL    HW277676   8.000   2.154   2.718
24628SOL     OW77677   8.456   3.318   2.339
24628SOL    HW177678   8.410   3.390   2.287
24628SOL    HW277679   8.452   3.338   2.437
24629SOL     OW77680   7.799   3.663   2.715
24629SOL    HW177681   7.849   3.577   2.721
24629SOL    HW277682   7.864   3.740   2.712
24630SOL     OW77683   9.243   2.928   2.735
24630SOL    HW177684   9.181   2.913   2.659
24630SOL    HW277685   9.191   2.939   2.820
24631SOL     OW77686   8.675   3.412   3.368
24631SOL    HW177687   8.681   3.335   3.432
24631SOL    HW277688   8.623   3.386   3.288
24632SOL     OW77689   7.769   2.805   2.104
24632SOL    HW177690   7.851   2.844   2.062
24632SOL    HW277691   7.742   2.723   2.055
24633SOL     OW77692   8.906   2.597   2.590
24633SOL    HW177693   8.901   2.532   2.665
24633SOL    HW277694   8.986   2.656   2.603
24634SOL     OW77695   7.909   3.128   3.589
24634SOL    HW177696   7.859   3.129   3.503
24634SOL    HW277697   7.846   3.110   3.665
24635SOL     OW77698   8.559   3.638   2.099
24635SOL    HW177699   8.499   3.576   2.149
24635SOL    HW277700   8.590   3.594   2.014
24636SOL     OW77701   7.650   2.147   3.360
24636SOL    HW177702   7.570   2.207   3.347
24636SOL    HW277703   7.640   2.098   3.446
24637SOL     OW77704   9.080   3.239   1.943
24637SOL    HW177705   9.048   3.333   1.933
24637SOL    HW277706   9.004   3.176   1.931
24638SOL     OW77707   7.912   3.605   2.185
24638SOL    HW177708   7.945   3.644   2.271
24638SOL    HW277709   7.988   3.598   2.120
24639SOL     OW77710   8.848   1.969   2.288
24639SOL    HW177711   8.824   1.932   2.198
24639SOL    HW277712   8.947   1.985   2.292
24640SOL     OW77713   7.697   3.647   3.103
24640SOL    HW177714   7.754   3.582   3.153
24640SOL    HW277715   7.681   3.614   3.010
24641SOL     OW77716   8.388   3.560   2.766
24641SOL    HW177717   8.468   3.503   2.787
24641SOL    HW277718   8.339   3.520   2.689
24642SOL     OW77719   7.830   2.562   2.342
24642SOL    HW177720   7.875   2.472   2.339
24642SOL    HW277721   7.736   2.551   2.375
24643SOL     OW77722   8.995   2.084   3.591
24643SOL    HW177723   8.990   2.121   3.683
24643SOL    HW277724   8.923   2.015   3.579
24644SOL     OW77725   8.062   1.984   1.979
24644SOL    HW177726   8.160   1.962   1.986
24644SOL    HW277727   8.031   1.967   1.886
24645SOL     OW77728   8.229   2.126   3.611
24645SOL    HW177729   8.296   2.065   3.654
24645SOL    HW277730   8.156   2.145   3.676
24646SOL     OW77731   8.799   2.452   3.295
24646SOL    HW177732   8.827   2.409   3.380
24646SOL    HW277733   8.824   2.548   3.296
24647SOL     OW77734   8.251   3.264   2.786
24647SOL    HW177735   8.341   3.278   2.744
24647SOL    HW277736   8.180   3.266   2.715
24648SOL     OW77737   8.370   2.365   2.761
24648SOL    HW177738   8.345   2.356   2.665
24648SOL    HW277739   8.418   2.283   2.792
24649SOL     OW77740   7.987   1.926   2.374
24649SOL    HW177741   7.906   1.927   2.432
24649SOL    HW277742   7.990   2.009   2.319
24650SOL     OW77743   8.882   3.050   1.903
24650SOL    HW177744   8.914   2.974   1.960
24650SOL    HW277745   8.790   3.077   1.933
24651SOL     OW77746   7.745   1.897   2.033
24651SOL    HW177747   7.794   1.981   2.012
24651SOL    HW277748   7.807   1.832   2.078
24652SOL     OW77749   8.383   2.098   2.342
24652SOL    HW177750   8.335   2.139   2.264
24652SOL    HW277751   8.482   2.096   2.323
24653SOL     OW77752   8.524   2.545   3.326
24653SOL    HW177753   8.444   2.484   3.329
24653SOL    HW277754   8.605   2.492   3.302
24654SOL     OW77755   8.675   3.432   2.655
24654SOL    HW177756   8.696   3.506   2.590
24654SOL    HW277757   8.743   3.432   2.728
24655SOL     OW77758   7.907   3.014   2.603
24655SOL    HW177759   7.836   2.987   2.668
24655SOL    HW277760   7.881   2.986   2.510
24656SOL     OW77761   8.719   3.659   2.453
24656SOL    HW177762   8.763   3.723   2.389
24656SOL    HW277763   8.669   3.711   2.523
24657SOL     OW77764   8.480   2.411   1.878
24657SOL    HW177765   8.439   2.493   1.839
24657SOL    HW277766   8.544   2.437   1.951
24658SOL     OW77767   7.526   2.418   3.248
24658SOL    HW177768   7.618   2.417   3.207
24658SOL    HW277769   7.520   2.492   3.315
24659SOL     OW77770   8.009   2.084   3.009
24659SOL    HW177771   8.047   2.000   3.046
24659SOL    HW277772   7.921   2.103   3.053
24660SOL     OW77773   8.314   2.316   2.504
24660SOL    HW177774   8.282   2.388   2.442
24660SOL    HW277775   8.338   2.235   2.451
24661SOL     OW77776   8.465   1.901   2.615
24661SOL    HW177777   8.393   1.906   2.546
24661SOL    HW277778   8.441   1.832   2.684
24662SOL     OW77779   8.877   3.035   2.729
24662SOL    HW177780   8.822   2.951   2.722
24662SOL    HW277781   8.903   3.064   2.637
24663SOL     OW77782   8.914   2.452   2.854
24663SOL    HW177783   8.884   2.357   2.861
24663SOL    HW277784   8.987   2.468   2.920
24664SOL     OW77785   9.305   2.695   2.239
24664SOL    HW177786   9.347   2.631   2.303
24664SOL    HW277787   9.267   2.644   2.161
24665SOL     OW77788   7.936   3.247   2.036
24665SOL    HW177789   7.849   3.232   2.083
24665SOL    HW277790   7.919   3.273   1.941
24666SOL     OW77791   9.112   3.142   2.519
24666SOL    HW177792   9.211   3.150   2.533
24666SOL    HW277793   9.067   3.226   2.550
24667SOL     OW77794   8.838   2.437   1.940
24667SOL    HW177795   8.784   2.416   2.021
24667SOL    HW277796   8.929   2.396   1.949
24668SOL     OW77797   7.975   2.118   2.190
24668SOL    HW177798   8.002   2.059   2.115
24668SOL    HW277799   7.975   2.213   2.159
24669SOL     OW77800   8.559   3.057   2.962
24669SOL    HW177801   8.519   3.101   3.043
24669SOL    HW277802   8.518   3.094   2.879
24670SOL     OW77803   9.086   2.961   2.941
24670SOL    HW177804   9.091   3.042   3.000
24670SOL    HW277805   9.000   2.963   2.890
24671SOL     OW77806   8.363   1.951   3.264
24671SOL    HW177807   8.388   1.931   3.169
24671SOL    HW277808   8.435   2.007   3.306
24672SOL     OW77809   8.428   2.978   3.581
24672SOL    HW177810   8.329   2.984   3.591
24672SOL    HW277811   8.451   2.898   3.525
24673SOL     OW77812   8.153   2.912   2.230
24673SOL    HW177813   8.139   2.919   2.329
24673SOL    HW277814   8.237   2.861   2.212
24674SOL     OW77815   7.858   2.675   3.113
24674SOL    HW177816   7.944   2.687   3.163
24674SOL    HW277817   7.816   2.588   3.140
24675SOL     OW77818   8.722   2.248   3.124
24675SOL    HW177819   8.743   2.322   3.188
24675SOL    HW277820   8.633   2.265   3.081
24676SOL     OW77821   7.512   3.426   3.193
24676SOL    HW177822   7.466   3.508   3.159
24676SOL    HW277823   7.610   3.445   3.202
24677SOL     OW77824   7.815   2.962   2.363
24677SOL    HW177825   7.808   3.045   2.307
24677SOL    HW277826   7.819   2.882   2.303
24678SOL     OW77827   8.014   2.399   2.727
24678SOL    HW177828   8.026   2.465   2.653
24678SOL    HW277829   8.060   2.433   2.810
24679SOL     OW77830   8.700   3.210   2.250
24679SOL    HW177831   8.750   3.287   2.290
24679SOL    HW277832   8.605   3.212   2.282
24680SOL     OW77833   7.802   3.372   3.191
24680SOL    HW177834   7.781   3.328   3.104
24680SOL    HW277835   7.899   3.398   3.194
24681SOL     OW77836   7.850   2.613   3.460
24681SOL    HW177837   7.918   2.668   3.413
24681SOL    HW277838   7.890   2.525   3.487
24682SOL     OW77839   9.035   2.641   3.532
24682SOL    HW177840   8.943   2.679   3.527
24682SOL    HW277841   9.095   2.688   3.467
24683SOL     OW77842   8.461   1.967   3.632
24683SOL    HW177843   8.467   2.052   3.580
24683SOL    HW277844   8.493   1.891   3.575
24684SOL     OW77845   7.952   1.912   3.602
24684SOL    HW177846   7.910   1.855   3.532
24684SOL    HW277847   7.886   1.981   3.634
24685SOL     OW77848   8.021   2.732   2.891
24685SOL    HW177849   8.065   2.821   2.882
24685SOL    HW277850   7.958   2.732   2.968
24686SOL     OW77851   8.808   2.724   2.907
24686SOL    HW177852   8.733   2.724   2.841
24686SOL    HW277853   8.845   2.632   2.916
24687SOL     OW77854   8.657   2.387   2.137
24687SOL    HW177855   8.670   2.303   2.191
24687SOL    HW277856   8.628   2.461   2.197
24688SOL     OW77857   7.755   2.075   3.093
24688SOL    HW177858   7.732   2.112   3.183
24688SOL    HW277859   7.725   1.980   3.087
24689SOL     OW77860   7.485   3.172   3.144
24689SOL    HW177861   7.538   3.123   3.212
24689SOL    HW277862   7.507   3.270   3.149
24690SOL     OW77863   8.180   2.496   2.926
24690SOL    HW177864   8.239   2.470   2.850
24690SOL    HW277865   8.152   2.592   2.915
24691SOL     OW77866   9.176   2.797   3.716
24691SOL    HW177867   9.130   2.790   3.627
24691SOL    HW277868   9.114   2.841   3.782
24692SOL     OW77869   7.755   1.925   2.480
24692SOL    HW177870   7.744   2.019   2.513
24692SOL    HW277871   7.750   1.862   2.557
24693SOL     OW77872   8.471   2.628   2.828
24693SOL    HW177873   8.486   2.649   2.924
24693SOL    HW277874   8.441   2.533   2.819
24694SOL     OW77875   7.798   2.760   3.666
24694SOL    HW177876   7.874   2.804   3.714
24694SOL    HW277877   7.833   2.713   3.584
24695SOL     OW77878   8.988   2.136   1.987
24695SOL    HW177879   8.927   2.061   2.010
24695SOL    HW277880   9.010   2.188   2.070
24696SOL     OW77881   8.751   2.700   1.904
24696SOL    HW177882   8.785   2.607   1.919
24696SOL    HW277883   8.769   2.727   1.809
24697SOL     OW77884   8.516   3.195   2.711
24697SOL    HW177885   8.523   3.111   2.656
24697SOL    HW277886   8.578   3.264   2.675
24698SOL     OW77887   7.767   2.672   2.811
24698SOL    HW177888   7.860   2.708   2.816
24698SOL    HW277889   7.761   2.587   2.863
24699SOL     OW77890   7.787   2.371   2.868
24699SOL    HW177891   7.735   2.288   2.851
24699SOL    HW277892   7.864   2.376   2.804
24700SOL     OW77893   8.608   2.069   3.339
24700SOL    HW177894   8.608   2.133   3.416
24700SOL    HW277895   8.636   2.117   3.256
24701SOL     OW77896   7.456   3.188   2.062
24701SOL    HW177897   7.363   3.209   2.031
24701SOL    HW277898   7.466   3.089   2.075
24702SOL     OW77899   7.536   3.663   2.789
24702SOL    HW177900   7.494   3.577   2.762
24702SOL    HW277901   7.630   3.666   2.755
24703SOL     OW77902   7.952   3.430   2.772
24703SOL    HW177903   8.018   3.504   2.781
24703SOL    HW277904   7.996   3.351   2.730
24704SOL     OW77905   8.450   2.658   3.100
24704SOL    HW177906   8.491   2.626   3.186
24704SOL    HW277907   8.354   2.631   3.097
24705SOL     OW77908   7.488   2.406   2.976
24705SOL    HW177909   7.573   2.373   2.935
24705SOL    HW277910   7.501   2.421   3.074
24706SOL     OW77911   7.637   2.382   3.584
24706SOL    HW177912   7.696   2.342   3.514
24706SOL    HW277913   7.579   2.453   3.543
24707SOL     OW77914   8.817   2.812   3.522
24707SOL    HW177915   8.856   2.901   3.542
24707SOL    HW277916   8.827   2.792   3.425
24708SOL     OW77917   8.263   2.434   2.187
24708SOL    HW177918   8.270   2.345   2.141
24708SOL    HW277919   8.169   2.468   2.179
24709SOL     OW77920   9.105   2.466   3.068
24709SOL    HW177921   9.067   2.397   3.130
24709SOL    HW277922   9.187   2.430   3.024
24710SOL     OW77923   7.700   3.426   3.606
24710SOL    HW177924   7.670   3.483   3.682
24710SOL    HW277925   7.693   3.329   3.632
24711SOL     OW77926   8.119   2.326   3.131
24711SOL    HW177927   8.085   2.237   3.101
24711SOL    HW277928   8.145   2.380   3.051
24712SOL     OW77929   7.921   2.362   2.053
24712SOL    HW177930   7.982   2.442   2.057
24712SOL    HW277931   7.826   2.393   2.060
24713SOL     OW77932   7.607   2.999   3.328
24713SOL    HW177933   7.629   2.938   3.404
24713SOL    HW277934   7.617   2.950   3.242
24714SOL     OW77935   8.795   2.921   3.096
24714SOL    HW177936   8.819   2.858   3.022
24714SOL    HW277937   8.705   2.961   3.078
24715SOL     OW77938   8.750   2.717   2.171
24715SOL    HW177939   8.664   2.686   2.213
24715SOL    HW277940   8.746   2.703   2.072
24716SOL     OW77941   9.207   3.609   3.016
24716SOL    HW177942   9.268   3.639   2.943
24716SOL    HW277943   9.169   3.520   2.994
24717SOL     OW77944   7.531   3.120   2.884
24717SOL    HW177945   7.526   3.119   2.984
24717SOL    HW277946   7.448   3.079   2.846
24718SOL     OW77947   8.136   3.524   3.578
24718SOL    HW177948   8.080   3.605   3.587
24718SOL    HW277949   8.188   3.528   3.492
24719SOL     OW77950   9.174   1.997   2.385
24719SOL    HW177951   9.247   1.980   2.318
24719SOL    HW277952   9.143   1.910   2.423
24720SOL     OW77953   8.836   3.435   2.339
24720SOL    HW177954   8.903   3.447   2.265
24720SOL    HW277955   8.796   3.524   2.362
24721SOL     OW77956   7.578   3.656   3.713
24721SOL    HW177957   7.537   3.582   3.766
24721SOL    HW277958   7.642   3.707   3.771
24722SOL     OW77959   8.728   2.789   2.534
24722SOL    HW177960   8.788   2.708   2.536
24722SOL    HW277961   8.768   2.858   2.474
24723SOL     OW77962   8.278   3.135   3.284
24723SOL    HW177963   8.273   3.168   3.379
24723SOL    HW277964   8.192   3.154   3.238
24724SOL     OW77965   8.120   3.478   2.016
24724SOL    HW177966   8.129   3.488   1.917
24724SOL    HW277967   8.080   3.389   2.037
24725SOL     OW77968   9.098   3.582   3.256
24725SOL    HW177969   9.151   3.592   3.172
24725SOL    HW277970   9.071   3.672   3.290
24726SOL     OW77971   9.289   2.037   2.825
24726SOL    HW177972   9.328   1.952   2.789
24726SOL    HW277973   9.191   2.039   2.806
24727SOL     OW77974   7.711   2.188   2.582
24727SOL    HW177975   7.632   2.239   2.548
24727SOL    HW277976   7.702   2.173   2.680
24728SOL     OW77977   8.642   3.474   1.893
24728SOL    HW177978   8.648   3.381   1.930
24728SOL    HW277979   8.583   3.474   1.813
24729SOL     OW77980   8.270   2.864   3.234
24729SOL    HW177981   8.310   2.863   3.142
24729SOL    HW277982   8.280   2.956   3.274
24730SOL     OW77983   8.952   3.469   1.906
24730SOL    HW177984   8.860   3.506   1.913
24730SOL    HW277985   8.990   3.489   1.816
24731SOL     OW77986   7.820   3.150   3.352
24731SOL    HW177987   7.807   3.243   3.318
24731SOL    HW277988   7.736   3.098   3.339
24732SOL     OW77989   9.062   3.154   3.151
24732SOL    HW177990   9.122   3.157   3.231
24732SOL    HW277991   8.987   3.218   3.164
24733SOL     OW77992   8.487   2.960   2.558
24733SOL    HW177993   8.417   2.913   2.612
24733SOL    HW277994   8.546   2.892   2.515
24734SOL     OW77995   8.462   2.098   2.833
24734SOL    HW177996   8.454   2.062   2.740
24734SOL    HW277997   8.460   2.022   2.898
24735SOL     OW77998   8.038   3.349   2.353
24735SOL    HW177999   8.080   3.291   2.283
24735SOL    HW278000   7.994   3.428   2.309
24736SOL     OW78001   9.157   2.247   3.243
24736SOL    HW178002   9.230   2.316   3.247
24736SOL    HW278003   9.185   2.172   3.184
24737SOL     OW78004   7.703   3.210   2.152
24737SOL    HW178005   7.607   3.211   2.125
24737SOL    HW278006   7.715   3.263   2.236
24738SOL     OW78007   7.553   2.875   3.588
24738SOL    HW178008   7.476   2.842   3.642
24738SOL    HW278009   7.638   2.845   3.630
24739SOL     OW78010   8.120   2.065   3.351
24739SOL    HW178011   8.210   2.049   3.311
24739SOL    HW278012   8.128   2.070   3.450
24740SOL     OW78013   7.523   2.207   1.895
24740SOL    HW178014   7.431   2.179   1.866
24740SOL    HW278015   7.554   2.284   1.839
24741SOL     OW78016   8.888   2.718   3.260
24741SOL    HW178017   8.831   2.770   3.197
24741SOL    HW278018   8.984   2.730   3.236
24742SOL     OW78019   7.520   2.028   2.180
24742SOL    HW178020   7.503   2.111   2.126
24742SOL    HW278021   7.610   1.991   2.158
24743SOL     OW78022   8.061   2.704   3.293
24743SOL    HW178023   8.117   2.785   3.276
24743SOL    HW278024   8.120   2.624   3.296
24744SOL     OW78025   8.941   3.629   2.821
24744SOL    HW178026   8.974   3.693   2.752
24744SOL    HW278027   9.007   3.623   2.896
24745SOL     OW78028   8.164   2.427   3.570
24745SOL    HW178029   8.183   2.492   3.644
24745SOL    HW278030   8.224   2.347   3.579
24746SOL     OW78031   8.898   3.082   3.495
24746SOL    HW178032   8.889   3.072   3.594
24746SOL    HW278033   8.994   3.075   3.469
24747SOL     OW78034   7.838   3.603   3.422
24747SOL    HW178035   7.747   3.644   3.420
24747SOL    HW278036   7.831   3.509   3.454
24748SOL     OW78037   9.122   2.745   3.116
24748SOL    HW178038   9.095   2.656   3.079
24748SOL    HW278039   9.123   2.813   3.043
24749SOL     OW78040   8.042   2.607   2.514
24749SOL    HW178041   8.092   2.692   2.495
24749SOL    HW278042   7.954   2.609   2.466
24750SOL     OW78043   9.225   2.204   3.504
24750SOL    HW178044   9.208   2.235   3.410
24750SOL    HW278045   9.141   2.167   3.542
24751SOL     OW78046   9.178   2.796   3.379
24751SOL    HW178047   9.216   2.887   3.394
24751SOL    HW278048   9.170   2.779   3.280
24752SOL     OW78049   8.307   3.236   1.878
24752SOL    HW178050   8.261   3.251   1.966
24752SOL    HW278051   8.351   3.321   1.848
24753SOL     OW78052   8.109   3.652   2.815
24753SOL    HW178053   8.063   3.740   2.802
24753SOL    HW278054   8.208   3.664   2.808
24754SOL     OW78055   8.307   2.818   2.723
24754SOL    HW178056   8.361   2.749   2.771
24754SOL    HW278057   8.275   2.887   2.789
24755SOL     OW78058   9.309   3.431   2.713
24755SOL    HW178059   9.238   3.419   2.643
24755SOL    HW278060   9.310   3.352   2.773
24756SOL     OW78061   7.669   3.176   3.706
24756SOL    HW178062   7.604   3.103   3.685
24756SOL    HW278063   7.673   3.190   3.804
24757SOL     OW78064   7.527   3.102   2.515
24757SOL    HW178065   7.526   3.055   2.603
24757SOL    HW278066   7.609   3.074   2.464
24758SOL     OW78067   8.120   3.253   3.486
24758SOL    HW178068   8.042   3.203   3.524
24758SOL    HW278069   8.117   3.348   3.517
24759SOL     OW78070   9.272   2.054   3.089
24759SOL    HW178071   9.268   1.964   3.133
24759SOL    HW278072   9.275   2.043   2.990
24760SOL     OW78073   7.876   2.286   2.382
24760SOL    HW178074   7.906   2.214   2.320
24760SOL    HW278075   7.837   2.246   2.465
24761SOL     OW78076   9.153   3.349   2.966
24761SOL    HW178077   9.060   3.324   2.939
24761SOL    HW278078   9.179   3.299   3.048
24762SOL     OW78079   7.765   2.409   3.142
24762SOL    HW178080   7.803   2.350   3.214
24762SOL    HW278081   7.805   2.383   3.054
24763SOL     OW78082   8.260   3.448   2.549
24763SOL    HW178083   8.292   3.458   2.455
24763SOL    HW278084   8.181   3.386   2.551
24764SOL     OW78085   8.872   2.076   2.974
24764SOL    HW178086   8.924   2.011   3.029
24764SOL    HW278087   8.823   2.139   3.035
24765SOL     OW78088   8.449   1.896   3.016
24765SOL    HW178089   8.386   1.824   2.985
24765SOL    HW278090   8.542   1.860   3.016
24766SOL     OW78091   8.218   3.192   2.163
24766SOL    HW178092   8.172   3.105   2.180
24766SOL    HW278093   8.309   3.189   2.204
24767SOL     OW78094   8.066   3.429   3.146
24767SOL    HW178095   8.061   3.511   3.203
24767SOL    HW278096   8.155   3.426   3.101
24768SOL     OW78097   8.800   1.914   2.030
24768SOL    HW178098   8.835   1.873   1.946
24768SOL    HW278099   8.710   1.876   2.050
24769SOL     OW78100   8.748   2.315   2.553
24769SOL    HW178101   8.689   2.395   2.557
24769SOL    HW278102   8.763   2.280   2.646
24770SOL     OW78103   9.041   2.083   2.744
24770SOL    HW178104   8.957   2.082   2.798
24770SOL    HW278105   9.043   2.166   2.688
24771SOL     OW78106   7.487   2.939   2.162
24771SOL    HW178107   7.586   2.928   2.153
24771SOL    HW278108   7.447   2.853   2.194
24772SOL     OW78109   8.323   3.508   2.199
24772SOL    HW178110   8.246   3.473   2.145
24772SOL    HW278111   8.291   3.579   2.261
24773SOL     OW78112   7.678   2.490   3.837
24773SOL    HW178113   7.585   2.488   3.874
24773SOL    HW278114   7.679   2.451   3.745
24774SOL     OW78115   7.673   2.137   4.720
24774SOL    HW178116   7.708   2.120   4.812
24774SOL    HW278117   7.585   2.092   4.708
24775SOL     OW78118   7.467   2.230   4.371
24775SOL    HW178119   7.385   2.273   4.410
24775SOL    HW278120   7.439   2.157   4.308
24776SOL     OW78121   8.017   3.137   4.889
24776SOL    HW178122   7.924   3.130   4.852
24776SOL    HW278123   8.028   3.226   4.933
24777SOL     OW78124   9.003   3.373   4.427
24777SOL    HW178125   8.946   3.357   4.508
24777SOL    HW278126   8.944   3.383   4.347
24778SOL     OW78127   8.583   2.565   4.441
24778SOL    HW178128   8.640   2.643   4.416
24778SOL    HW278129   8.523   2.591   4.517
24779SOL     OW78130   9.203   2.469   3.955
24779SOL    HW178131   9.191   2.456   3.856
24779SOL    HW278132   9.173   2.388   4.004
24780SOL     OW78133   8.216   3.006   4.747
24780SOL    HW178134   8.138   3.023   4.807
24780SOL    HW278135   8.250   3.093   4.711
24781SOL     OW78136   8.133   2.874   4.389
24781SOL    HW178137   8.202   2.858   4.459
24781SOL    HW278138   8.060   2.931   4.427
24782SOL     OW78139   8.134   3.023   5.527
24782SOL    HW178140   8.194   3.102   5.541
24782SOL    HW278141   8.048   3.054   5.486
24783SOL     OW78142   7.783   3.297   4.785
24783SOL    HW178143   7.705   3.266   4.732
24783SOL    HW278144   7.841   3.355   4.728
24784SOL     OW78145   8.908   3.367   5.063
24784SOL    HW178146   8.932   3.461   5.089
24784SOL    HW278147   8.892   3.313   5.145
24785SOL     OW78148   7.886   2.254   5.223
24785SOL    HW178149   7.968   2.198   5.232
24785SOL    HW278150   7.805   2.196   5.227
24786SOL     OW78151   9.051   2.309   4.461
24786SOL    HW178152   8.977   2.355   4.411
24786SOL    HW278153   9.102   2.377   4.514
24787SOL     OW78154   7.679   3.575   4.207
24787SOL    HW178155   7.713   3.652   4.261
24787SOL    HW278156   7.723   3.575   4.117
24788SOL     OW78157   8.575   3.203   5.414
24788SOL    HW178158   8.622   3.203   5.502
24788SOL    HW278159   8.527   3.116   5.403
24789SOL     OW78160   7.678   3.296   4.262
24789SOL    HW178161   7.652   3.392   4.262
24789SOL    HW278162   7.607   3.242   4.307
24790SOL     OW78163   7.688   2.953   4.610
24790SOL    HW178164   7.702   2.869   4.662
24790SOL    HW278165   7.633   3.017   4.665
24791SOL     OW78166   8.068   3.648   5.163
24791SOL    HW178167   7.976   3.631   5.198
24791SOL    HW278168   8.096   3.740   5.189
24792SOL     OW78169   8.054   2.826   3.847
24792SOL    HW178170   8.061   2.910   3.793
24792SOL    HW278171   8.100   2.839   3.935
24793SOL     OW78172   7.570   2.505   4.287
24793SOL    HW178173   7.525   2.417   4.304
24793SOL    HW278174   7.569   2.559   4.371
24794SOL     OW78175   9.290   3.629   4.083
24794SOL    HW178176   9.344   3.600   4.163
24794SOL    HW278177   9.320   3.719   4.054
24795SOL     OW78178   7.475   3.458   3.841
24795SOL    HW178179   7.456   3.362   3.862
24795SOL    HW278180   7.442   3.516   3.916
24796SOL     OW78181   9.137   2.784   4.336
24796SOL    HW178182   9.232   2.755   4.344
24796SOL    HW278183   9.129   2.849   4.261
24797SOL     OW78184   9.089   2.970   4.156
24797SOL    HW178185   9.175   2.972   4.104
24797SOL    HW278186   9.103   3.017   4.244
24798SOL     OW78187   7.561   2.599   5.321
24798SOL    HW178188   7.649   2.586   5.366
24798SOL    HW278189   7.548   2.696   5.299
24799SOL     OW78190   8.061   3.227   4.450
24799SOL    HW178191   8.012   3.140   4.459
24799SOL    HW278192   8.038   3.270   4.363
24800SOL     OW78193   8.741   3.090   5.147
24800SOL    HW178194   8.778   3.017   5.089
24800SOL    HW278195   8.793   3.095   5.232
24801SOL     OW78196   8.257   1.866   4.226
24801SOL    HW178197   8.297   1.957   4.217
24801SOL    HW278198   8.157   1.874   4.232
24802SOL     OW78199   7.645   2.838   4.988
24802SOL    HW178200   7.734   2.793   4.974
24802SOL    HW278201   7.572   2.773   4.969
24803SOL     OW78202   8.973   2.861   3.914
24803SOL    HW178203   8.910   2.785   3.927
24803SOL    HW278204   9.021   2.879   4.000
24804SOL     OW78205   8.635   3.654   5.340
24804SOL    HW178206   8.659   3.714   5.264
24804SOL    HW278207   8.642   3.559   5.310
24805SOL     OW78208   7.765   2.113   5.525
24805SOL    HW178209   7.836   2.184   5.531
24805SOL    HW278210   7.677   2.152   5.553
24806SOL     OW78211   8.914   3.279   4.677
24806SOL    HW178212   8.855   3.285   4.757
24806SOL    HW278213   8.899   3.191   4.631
24807SOL     OW78214   9.115   3.576   4.296
24807SOL    HW178215   9.074   3.553   4.208
24807SOL    HW278216   9.097   3.502   4.361
24808SOL     OW78217   8.046   2.591   3.994
24808SOL    HW178218   8.070   2.660   3.926
24808SOL    HW278219   7.968   2.624   4.048
24809SOL     OW78220   8.729   2.207   4.668
24809SOL    HW178221   8.643   2.157   4.655
24809SOL    HW278222   8.791   2.153   4.724
24810SOL     OW78223   9.024   3.524   4.031
24810SOL    HW178224   9.113   3.570   4.034
24810SOL    HW278225   9.003   3.500   3.936
24811SOL     OW78226   8.842   2.331   5.398
24811SOL    HW178227   8.822   2.374   5.486
24811SOL    HW278228   8.920   2.269   5.407
24812SOL     OW78229   8.421   2.752   5.296
24812SOL    HW178230   8.467   2.668   5.267
24812SOL    HW278231   8.365   2.786   5.221
24813SOL     OW78232   8.489   2.563   4.153
24813SOL    HW178233   8.515   2.559   4.249
24813SOL    HW278234   8.404   2.512   4.139
24814SOL     OW78235   7.524   2.673   4.513
24814SOL    HW178236   7.623   2.661   4.522
24814SOL    HW278237   7.500   2.768   4.534
24815SOL     OW78238   7.578   3.683   5.295
24815SOL    HW178239   7.568   3.668   5.394
24815SOL    HW278240   7.492   3.719   5.259
24816SOL     OW78241   8.313   2.210   3.919
24816SOL    HW178242   8.372   2.273   3.870
24816SOL    HW278243   8.332   2.116   3.890
24817SOL     OW78244   9.167   2.447   5.555
24817SOL    HW178245   9.141   2.536   5.519
24817SOL    HW278246   9.165   2.379   5.482
24818SOL     OW78247   8.810   3.006   4.269
24818SOL    HW178248   8.893   2.977   4.221
24818SOL    HW278249   8.761   3.073   4.213
24819SOL     OW78250   7.998   2.058   4.609
24819SOL    HW178251   7.993   2.053   4.709
24819SOL    HW278252   8.000   2.154   4.580
24820SOL     OW78253   7.799   3.663   4.577
24820SOL    HW178254   7.849   3.577   4.583
24820SOL    HW278255   7.864   3.740   4.574
24821SOL     OW78256   9.243   2.928   4.597
24821SOL    HW178257   9.181   2.913   4.521
24821SOL    HW278258   9.191   2.939   4.682
24822SOL     OW78259   8.675   3.412   5.230
24822SOL    HW178260   8.681   3.335   5.294
24822SOL    HW278261   8.623   3.386   5.150
24823SOL     OW78262   7.769   2.805   3.966
24823SOL    HW178263   7.851   2.844   3.924
24823SOL    HW278264   7.742   2.723   3.917
24824SOL     OW78265   8.906   2.597   4.452
24824SOL    HW178266   8.901   2.532   4.527
24824SOL    HW278267   8.986   2.656   4.465
24825SOL     OW78268   7.909   3.128   5.451
24825SOL    HW178269   7.859   3.129   5.365
24825SOL    HW278270   7.846   3.110   5.527
24826SOL     OW78271   8.559   3.638   3.961
24826SOL    HW178272   8.499   3.576   4.011
24826SOL    HW278273   8.590   3.594   3.876
24827SOL     OW78274   7.650   2.147   5.222
24827SOL    HW178275   7.570   2.207   5.209
24827SOL    HW278276   7.640   2.098   5.308
24828SOL     OW78277   9.080   3.239   3.805
24828SOL    HW178278   9.048   3.333   3.795
24828SOL    HW278279   9.004   3.176   3.793
24829SOL     OW78280   7.912   3.605   4.047
24829SOL    HW178281   7.945   3.644   4.133
24829SOL    HW278282   7.988   3.598   3.982
24830SOL     OW78283   8.848   1.969   4.150
24830SOL    HW178284   8.824   1.932   4.060
24830SOL    HW278285   8.947   1.985   4.154
24831SOL     OW78286   7.697   3.647   4.965
24831SOL    HW178287   7.754   3.582   5.015
24831SOL    HW278288   7.681   3.614   4.872
24832SOL     OW78289   8.995   2.084   5.453
24832SOL    HW178290   8.990   2.121   5.545
24832SOL    HW278291   8.923   2.015   5.441
24833SOL     OW78292   8.229   2.126   5.473
24833SOL    HW178293   8.296   2.065   5.516
24833SOL    HW278294   8.156   2.145   5.538
24834SOL     OW78295   8.336   3.376   4.919
24834SOL    HW178296   8.313   3.351   4.825
24834SOL    HW278297   8.397   3.307   4.958
24835SOL     OW78298   8.799   2.452   5.157
24835SOL    HW178299   8.827   2.409   5.242
24835SOL    HW278300   8.824   2.548   5.158
24836SOL     OW78301   8.370   2.365   4.623
24836SOL    HW178302   8.345   2.356   4.527
24836SOL    HW278303   8.418   2.283   4.654
24837SOL     OW78304   8.882   3.050   3.765
24837SOL    HW178305   8.914   2.974   3.822
24837SOL    HW278306   8.790   3.077   3.795
24838SOL     OW78307   8.383   2.098   4.204
24838SOL    HW178308   8.335   2.139   4.126
24838SOL    HW278309   8.482   2.096   4.185
24839SOL     OW78310   8.675   3.432   4.517
24839SOL    HW178311   8.696   3.506   4.452
24839SOL    HW278312   8.743   3.432   4.590
24840SOL     OW78313   7.907   3.014   4.465
24840SOL    HW178314   7.836   2.987   4.530
24840SOL    HW278315   7.881   2.986   4.372
24841SOL     OW78316   8.719   3.659   4.315
24841SOL    HW178317   8.763   3.723   4.251
24841SOL    HW278318   8.669   3.711   4.385
24842SOL     OW78319   7.526   2.418   5.110
24842SOL    HW178320   7.618   2.417   5.069
24842SOL    HW278321   7.520   2.492   5.177
24843SOL     OW78322   8.009   2.084   4.871
24843SOL    HW178323   8.047   2.000   4.908
24843SOL    HW278324   7.921   2.103   4.915
24844SOL     OW78325   8.314   2.316   4.366
24844SOL    HW178326   8.282   2.388   4.304
24844SOL    HW278327   8.338   2.235   4.313
24845SOL     OW78328   8.465   1.901   4.477
24845SOL    HW178329   8.393   1.906   4.408
24845SOL    HW278330   8.441   1.832   4.546
24846SOL     OW78331   8.877   3.035   4.591
24846SOL    HW178332   8.822   2.951   4.584
24846SOL    HW278333   8.903   3.064   4.499
24847SOL     OW78334   8.914   2.452   4.716
24847SOL    HW178335   8.884   2.357   4.723
24847SOL    HW278336   8.987   2.468   4.782
24848SOL     OW78337   9.305   2.695   4.101
24848SOL    HW178338   9.347   2.631   4.165
24848SOL    HW278339   9.267   2.644   4.023
24849SOL     OW78340   7.936   3.247   3.898
24849SOL    HW178341   7.849   3.232   3.945
24849SOL    HW278342   7.919   3.273   3.803
24850SOL     OW78343   9.112   3.142   4.381
24850SOL    HW178344   9.211   3.150   4.395
24850SOL    HW278345   9.067   3.226   4.412
24851SOL     OW78346   9.202   3.085   5.312
24851SOL    HW178347   9.293   3.046   5.299
24851SOL    HW278348   9.210   3.181   5.336
24852SOL     OW78349   8.512   3.209   5.064
24852SOL    HW178350   8.432   3.186   5.119
24852SOL    HW278351   8.595   3.183   5.113
24853SOL     OW78352   9.040   3.491   5.349
24853SOL    HW178353   9.067   3.525   5.259
24853SOL    HW278354   9.119   3.453   5.395
24854SOL     OW78355   8.559   3.057   4.824
24854SOL    HW178356   8.519   3.101   4.905
24854SOL    HW278357   8.518   3.094   4.741
24855SOL     OW78358   9.086   2.961   4.803
24855SOL    HW178359   9.091   3.042   4.862
24855SOL    HW278360   9.000   2.963   4.752
24856SOL     OW78361   8.363   1.951   5.126
24856SOL    HW178362   8.388   1.931   5.031
24856SOL    HW278363   8.435   2.007   5.168
24857SOL     OW78364   8.428   2.978   5.443
24857SOL    HW178365   8.329   2.984   5.453
24857SOL    HW278366   8.451   2.898   5.387
24858SOL     OW78367   8.153   2.912   4.092
24858SOL    HW178368   8.139   2.919   4.191
24858SOL    HW278369   8.237   2.861   4.074
24859SOL     OW78370   7.858   2.675   4.975
24859SOL    HW178371   7.944   2.687   5.025
24859SOL    HW278372   7.816   2.588   5.002
24860SOL     OW78373   8.722   2.248   4.986
24860SOL    HW178374   8.743   2.322   5.050
24860SOL    HW278375   8.633   2.265   4.943
24861SOL     OW78376   7.512   3.426   5.055
24861SOL    HW178377   7.466   3.508   5.021
24861SOL    HW278378   7.610   3.445   5.064
24862SOL     OW78379   7.815   2.962   4.225
24862SOL    HW178380   7.808   3.045   4.169
24862SOL    HW278381   7.819   2.882   4.165
24863SOL     OW78382   8.014   2.399   4.589
24863SOL    HW178383   8.026   2.465   4.515
24863SOL    HW278384   8.060   2.433   4.672
24864SOL     OW78385   8.720   3.307   4.866
24864SOL    HW178386   8.767   3.320   4.953
24864SOL    HW278387   8.654   3.233   4.875
24865SOL     OW78388   9.030   2.501   4.196
24865SOL    HW178389   8.999   2.562   4.269
24865SOL    HW278390   9.080   2.553   4.127
24866SOL     OW78391   7.802   3.372   5.053
24866SOL    HW178392   7.781   3.328   4.966
24866SOL    HW278393   7.899   3.398   5.056
24867SOL     OW78394   7.850   2.613   5.322
24867SOL    HW178395   7.918   2.668   5.275
24867SOL    HW278396   7.890   2.525   5.349
24868SOL     OW78397   9.035   2.641   5.394
24868SOL    HW178398   8.943   2.679   5.389
24868SOL    HW278399   9.095   2.688   5.329
24869SOL     OW78400   8.461   1.967   5.494
24869SOL    HW178401   8.467   2.052   5.442
24869SOL    HW278402   8.493   1.891   5.437
24870SOL     OW78403   7.952   1.912   5.464
24870SOL    HW178404   7.910   1.855   5.394
24870SOL    HW278405   7.886   1.981   5.496
24871SOL     OW78406   8.021   2.732   4.753
24871SOL    HW178407   8.065   2.821   4.744
24871SOL    HW278408   7.958   2.732   4.830
24872SOL     OW78409   8.808   2.724   4.769
24872SOL    HW178410   8.733   2.724   4.703
24872SOL    HW278411   8.845   2.632   4.778
24873SOL     OW78412   7.755   2.075   4.955
24873SOL    HW178413   7.732   2.112   5.045
24873SOL    HW278414   7.725   1.980   4.949
24874SOL     OW78415   7.485   3.172   5.006
24874SOL    HW178416   7.538   3.123   5.074
24874SOL    HW278417   7.507   3.270   5.011
24875SOL     OW78418   8.180   2.496   4.788
24875SOL    HW178419   8.239   2.470   4.712
24875SOL    HW278420   8.152   2.592   4.777
24876SOL     OW78421   9.176   2.797   5.578
24876SOL    HW178422   9.130   2.790   5.489
24876SOL    HW278423   9.114   2.841   5.644
24877SOL     OW78424   7.755   1.925   4.342
24877SOL    HW178425   7.744   2.019   4.375
24877SOL    HW278426   7.750   1.862   4.419
24878SOL     OW78427   9.070   2.229   4.098
24878SOL    HW178428   9.072   2.153   4.162
24878SOL    HW278429   9.022   2.306   4.138
24879SOL     OW78430   8.471   2.628   4.690
24879SOL    HW178431   8.486   2.649   4.786
24879SOL    HW278432   8.441   2.533   4.681
24880SOL     OW78433   8.428   3.435   5.424
24880SOL    HW178434   8.408   3.479   5.336
24880SOL    HW278435   8.467   3.344   5.408
24881SOL     OW78436   9.307   3.380   5.329
24881SOL    HW178437   9.321   3.407   5.234
24881SOL    HW278438   9.390   3.402   5.382
24882SOL     OW78439   7.798   2.760   5.528
24882SOL    HW178440   7.874   2.804   5.576
24882SOL    HW278441   7.833   2.713   5.446
24883SOL     OW78442   8.988   2.136   3.849
24883SOL    HW178443   8.927   2.061   3.872
24883SOL    HW278444   9.010   2.188   3.932
24884SOL     OW78445   7.767   2.672   4.673
24884SOL    HW178446   7.860   2.708   4.678
24884SOL    HW278447   7.761   2.587   4.725
24885SOL     OW78448   7.787   2.371   4.730
24885SOL    HW178449   7.735   2.288   4.713
24885SOL    HW278450   7.864   2.376   4.666
24886SOL     OW78451   8.608   2.069   5.201
24886SOL    HW178452   8.608   2.133   5.278
24886SOL    HW278453   8.636   2.117   5.118
24887SOL     OW78454   7.456   3.188   3.924
24887SOL    HW178455   7.363   3.209   3.893
24887SOL    HW278456   7.466   3.089   3.937
24888SOL     OW78457   7.536   3.663   4.651
24888SOL    HW178458   7.494   3.577   4.624
24888SOL    HW278459   7.630   3.666   4.617
24889SOL     OW78460   7.952   3.430   4.634
24889SOL    HW178461   8.018   3.504   4.643
24889SOL    HW278462   7.996   3.351   4.592
24890SOL     OW78463   8.450   2.658   4.962
24890SOL    HW178464   8.491   2.626   5.048
24890SOL    HW278465   8.354   2.631   4.959
24891SOL     OW78466   7.488   2.406   4.838
24891SOL    HW178467   7.573   2.373   4.797
24891SOL    HW278468   7.501   2.421   4.936
24892SOL     OW78469   7.637   2.382   5.446
24892SOL    HW178470   7.696   2.342   5.376
24892SOL    HW278471   7.579   2.453   5.405
24893SOL     OW78472   8.817   2.812   5.384
24893SOL    HW178473   8.856   2.901   5.404
24893SOL    HW278474   8.827   2.792   5.287
24894SOL     OW78475   9.105   2.466   4.930
24894SOL    HW178476   9.067   2.397   4.992
24894SOL    HW278477   9.187   2.430   4.886
24895SOL     OW78478   7.700   3.426   5.468
24895SOL    HW178479   7.670   3.483   5.544
24895SOL    HW278480   7.693   3.329   5.494
24896SOL     OW78481   8.119   2.326   4.993
24896SOL    HW178482   8.085   2.237   4.963
24896SOL    HW278483   8.145   2.380   4.913
24897SOL     OW78484   8.378   3.540   5.189
24897SOL    HW178485   8.354   3.522   5.094
24897SOL    HW278486   8.408   3.634   5.199
24898SOL     OW78487   7.607   2.999   5.190
24898SOL    HW178488   7.629   2.938   5.266
24898SOL    HW278489   7.617   2.950   5.104
24899SOL     OW78490   8.795   2.921   4.958
24899SOL    HW178491   8.819   2.858   4.884
24899SOL    HW278492   8.705   2.961   4.940
24900SOL     OW78493   8.750   2.717   4.033
24900SOL    HW178494   8.664   2.686   4.075
24900SOL    HW278495   8.746   2.703   3.934
24901SOL     OW78496   9.207   3.609   4.878
24901SOL    HW178497   9.268   3.639   4.805
24901SOL    HW278498   9.169   3.520   4.856
24902SOL     OW78499   8.700   3.593   4.852
24902SOL    HW178500   8.784   3.598   4.798
24902SOL    HW278501   8.677   3.497   4.870
24903SOL     OW78502   7.531   3.120   4.746
24903SOL    HW178503   7.526   3.119   4.846
24903SOL    HW278504   7.448   3.079   4.708
24904SOL     OW78505   8.136   3.524   5.440
24904SOL    HW178506   8.080   3.605   5.449
24904SOL    HW278507   8.188   3.528   5.354
24905SOL     OW78508   9.174   1.997   4.247
24905SOL    HW178509   9.247   1.980   4.180
24905SOL    HW278510   9.143   1.910   4.285
24906SOL     OW78511   8.836   3.435   4.201
24906SOL    HW178512   8.903   3.447   4.127
24906SOL    HW278513   8.796   3.524   4.224
24907SOL     OW78514   7.578   3.656   5.575
24907SOL    HW178515   7.537   3.582   5.628
24907SOL    HW278516   7.642   3.707   5.633
24908SOL     OW78517   8.728   2.789   4.396
24908SOL    HW178518   8.788   2.708   4.398
24908SOL    HW278519   8.768   2.858   4.336
24909SOL     OW78520   8.278   3.135   5.146
24909SOL    HW178521   8.273   3.168   5.241
24909SOL    HW278522   8.192   3.154   5.100
24910SOL     OW78523   8.120   3.478   3.878
24910SOL    HW178524   8.129   3.488   3.779
24910SOL    HW278525   8.080   3.389   3.899
24911SOL     OW78526   9.098   3.582   5.118
24911SOL    HW178527   9.151   3.592   5.034
24911SOL    HW278528   9.071   3.672   5.152
24912SOL     OW78529   7.711   2.188   4.444
24912SOL    HW178530   7.632   2.239   4.410
24912SOL    HW278531   7.702   2.173   4.542
24913SOL     OW78532   8.642   3.474   3.755
24913SOL    HW178533   8.648   3.381   3.792
24913SOL    HW278534   8.583   3.474   3.675
24914SOL     OW78535   8.270   2.864   5.096
24914SOL    HW178536   8.310   2.863   5.004
24914SOL    HW278537   8.280   2.956   5.136
24915SOL     OW78538   8.364   2.772   4.015
24915SOL    HW178539   8.427   2.810   3.947
24915SOL    HW278540   8.404   2.689   4.054
24916SOL     OW78541   8.952   3.469   3.768
24916SOL    HW178542   8.860   3.506   3.775
24916SOL    HW278543   8.990   3.489   3.678
24917SOL     OW78544   7.820   3.150   5.214
24917SOL    HW178545   7.807   3.243   5.180
24917SOL    HW278546   7.736   3.098   5.201
24918SOL     OW78547   9.062   3.154   5.013
24918SOL    HW178548   9.122   3.157   5.093
24918SOL    HW278549   8.987   3.218   5.026
24919SOL     OW78550   8.487   2.960   4.420
24919SOL    HW178551   8.417   2.913   4.474
24919SOL    HW278552   8.546   2.892   4.377
24920SOL     OW78553   8.462   2.098   4.695
24920SOL    HW178554   8.454   2.062   4.602
24920SOL    HW278555   8.460   2.022   4.760
24921SOL     OW78556   8.038   3.349   4.215
24921SOL    HW178557   8.080   3.291   4.145
24921SOL    HW278558   7.994   3.428   4.171
24922SOL     OW78559   7.703   3.210   4.014
24922SOL    HW178560   7.607   3.211   3.987
24922SOL    HW278561   7.715   3.263   4.098
24923SOL     OW78562   7.553   2.875   5.450
24923SOL    HW178563   7.476   2.842   5.504
24923SOL    HW278564   7.638   2.845   5.492
24924SOL     OW78565   8.120   2.065   5.213
24924SOL    HW178566   8.210   2.049   5.173
24924SOL    HW278567   8.128   2.070   5.312
24925SOL     OW78568   7.523   2.207   3.757
24925SOL    HW178569   7.431   2.179   3.728
24925SOL    HW278570   7.554   2.284   3.701
24926SOL     OW78571   8.888   2.718   5.122
24926SOL    HW178572   8.831   2.770   5.059
24926SOL    HW278573   8.984   2.730   5.098
24927SOL     OW78574   7.520   2.028   4.042
24927SOL    HW178575   7.503   2.111   3.988
24927SOL    HW278576   7.610   1.991   4.020
24928SOL     OW78577   8.631   3.197   3.843
24928SOL    HW178578   8.532   3.186   3.845
24928SOL    HW278579   8.665   3.212   3.936
24929SOL     OW78580   8.941   3.629   4.683
24929SOL    HW178581   8.974   3.693   4.614
24929SOL    HW278582   9.007   3.623   4.758
24930SOL     OW78583   8.898   3.082   5.357
24930SOL    HW178584   8.889   3.072   5.456
24930SOL    HW278585   8.994   3.075   5.331
24931SOL     OW78586   7.838   3.603   5.284
24931SOL    HW178587   7.747   3.644   5.282
24931SOL    HW278588   7.831   3.509   5.316
24932SOL     OW78589   9.122   2.745   4.978
24932SOL    HW178590   9.095   2.656   4.941
24932SOL    HW278591   9.123   2.813   4.905
24933SOL     OW78592   8.673   2.187   4.173
24933SOL    HW178593   8.738   2.113   4.162
24933SOL    HW278594   8.693   2.237   4.257
24934SOL     OW78595   8.042   2.607   4.376
24934SOL    HW178596   8.092   2.692   4.357
24934SOL    HW278597   7.954   2.609   4.328
24935SOL     OW78598   9.178   2.796   5.241
24935SOL    HW178599   9.216   2.887   5.256
24935SOL    HW278600   9.170   2.779   5.142
24936SOL     OW78601   8.307   3.236   3.740
24936SOL    HW178602   8.261   3.251   3.828
24936SOL    HW278603   8.351   3.321   3.710
24937SOL     OW78604   8.109   3.652   4.677
24937SOL    HW178605   8.063   3.740   4.664
24937SOL    HW278606   8.208   3.664   4.670
24938SOL     OW78607   8.307   2.818   4.585
24938SOL    HW178608   8.361   2.749   4.633
24938SOL    HW278609   8.275   2.887   4.651
24939SOL     OW78610   8.531   2.846   3.811
24939SOL    HW178611   8.508   2.899   3.729
24939SOL    HW278612   8.612   2.790   3.792
24940SOL     OW78613   9.309   3.431   4.575
24940SOL    HW178614   9.238   3.419   4.505
24940SOL    HW278615   9.310   3.352   4.635
24941SOL     OW78616   7.669   3.176   5.568
24941SOL    HW178617   7.604   3.103   5.547
24941SOL    HW278618   7.673   3.190   5.666
24942SOL     OW78619   7.527   3.102   4.377
24942SOL    HW178620   7.526   3.055   4.465
24942SOL    HW278621   7.609   3.074   4.326
24943SOL     OW78622   8.120   3.253   5.348
24943SOL    HW178623   8.042   3.203   5.386
24943SOL    HW278624   8.117   3.348   5.379
24944SOL     OW78625   9.153   3.349   4.828
24944SOL    HW178626   9.060   3.324   4.801
24944SOL    HW278627   9.179   3.299   4.910
24945SOL     OW78628   7.765   2.409   5.004
24945SOL    HW178629   7.803   2.350   5.076
24945SOL    HW278630   7.805   2.383   4.916
24946SOL     OW78631   8.872   2.076   4.836
24946SOL    HW178632   8.924   2.011   4.891
24946SOL    HW278633   8.823   2.139   4.897
24947SOL     OW78634   8.449   1.896   4.878
24947SOL    HW178635   8.386   1.824   4.847
24947SOL    HW278636   8.542   1.860   4.878
24948SOL     OW78637   8.066   3.429   5.008
24948SOL    HW178638   8.061   3.511   5.065
24948SOL    HW278639   8.155   3.426   4.963
24949SOL     OW78640   8.800   1.914   3.892
24949SOL    HW178641   8.835   1.873   3.808
24949SOL    HW278642   8.710   1.876   3.912
24950SOL     OW78643   8.748   2.315   4.415
24950SOL    HW178644   8.689   2.395   4.419
24950SOL    HW278645   8.763   2.280   4.508
24951SOL     OW78646   9.041   2.083   4.606
24951SOL    HW178647   8.957   2.082   4.660
24951SOL    HW278648   9.043   2.166   4.550
24952SOL     OW78649   7.487   2.939   4.024
24952SOL    HW178650   7.586   2.928   4.015
24952SOL    HW278651   7.447   2.853   4.056
24953SOL     OW78652   8.323   3.508   4.061
24953SOL    HW178653   8.246   3.473   4.007
24953SOL    HW278654   8.291   3.579   4.123
24954SOL     OW78655   7.678   2.490   5.699
24954SOL    HW178656   7.585   2.488   5.736
24954SOL    HW278657   7.679   2.451   5.607
24955SOL     OW78658   7.673   2.137   6.582
24955SOL    HW178659   7.708   2.120   6.674
24955SOL    HW278660   7.585   2.092   6.570
24956SOL     OW78661   7.467   2.230   6.233
24956SOL    HW178662   7.385   2.273   6.272
24956SOL    HW278663   7.439   2.157   6.170
24957SOL     OW78664   8.017   3.137   6.751
24957SOL    HW178665   7.924   3.130   6.714
24957SOL    HW278666   8.028   3.226   6.795
24958SOL     OW78667   9.003   3.373   6.289
24958SOL    HW178668   8.946   3.357   6.370
24958SOL    HW278669   8.944   3.383   6.209
24959SOL     OW78670   8.583   2.565   6.303
24959SOL    HW178671   8.640   2.643   6.278
24959SOL    HW278672   8.523   2.591   6.379
24960SOL     OW78673   8.216   3.006   6.609
24960SOL    HW178674   8.138   3.023   6.669
24960SOL    HW278675   8.250   3.093   6.573
24961SOL     OW78676   8.298   2.660   7.409
24961SOL    HW178677   8.294   2.736   7.474
24961SOL    HW278678   8.320   2.696   7.318
24962SOL     OW78679   8.133   2.874   6.251
24962SOL    HW178680   8.202   2.858   6.321
24962SOL    HW278681   8.060   2.931   6.289
24963SOL     OW78682   8.134   3.023   7.389
24963SOL    HW178683   8.194   3.102   7.403
24963SOL    HW278684   8.048   3.054   7.348
24964SOL     OW78685   7.783   3.297   6.647
24964SOL    HW178686   7.705   3.266   6.594
24964SOL    HW278687   7.841   3.355   6.590
24965SOL     OW78688   8.908   3.367   6.925
24965SOL    HW178689   8.932   3.461   6.951
24965SOL    HW278690   8.892   3.313   7.007
24966SOL     OW78691   7.886   2.254   7.085
24966SOL    HW178692   7.968   2.198   7.094
24966SOL    HW278693   7.805   2.196   7.089
24967SOL     OW78694   9.051   2.309   6.323
24967SOL    HW178695   8.977   2.355   6.273
24967SOL    HW278696   9.102   2.377   6.376
24968SOL     OW78697   7.679   3.575   6.069
24968SOL    HW178698   7.713   3.652   6.123
24968SOL    HW278699   7.723   3.575   5.979
24969SOL     OW78700   8.575   3.203   7.276
24969SOL    HW178701   8.622   3.203   7.364
24969SOL    HW278702   8.527   3.116   7.265
24970SOL     OW78703   7.678   3.296   6.124
24970SOL    HW178704   7.652   3.392   6.124
24970SOL    HW278705   7.607   3.242   6.169
24971SOL     OW78706   7.688   2.953   6.472
24971SOL    HW178707   7.702   2.869   6.524
24971SOL    HW278708   7.633   3.017   6.527
24972SOL     OW78709   8.068   3.648   7.025
24972SOL    HW178710   7.976   3.631   7.060
24972SOL    HW278711   8.096   3.740   7.051
24973SOL     OW78712   8.054   2.826   5.709
24973SOL    HW178713   8.061   2.910   5.655
24973SOL    HW278714   8.100   2.839   5.797
24974SOL     OW78715   9.042   1.976   7.066
24974SOL    HW178716   9.024   2.043   6.994
24974SOL    HW278717   9.039   2.022   7.155
24975SOL     OW78718   7.570   2.505   6.149
24975SOL    HW178719   7.525   2.417   6.166
24975SOL    HW278720   7.569   2.559   6.233
24976SOL     OW78721   9.290   3.629   5.945
24976SOL    HW178722   9.344   3.600   6.025
24976SOL    HW278723   9.320   3.719   5.916
24977SOL     OW78724   7.475   3.458   5.703
24977SOL    HW178725   7.456   3.362   5.724
24977SOL    HW278726   7.442   3.516   5.778
24978SOL     OW78727   9.137   2.784   6.198
24978SOL    HW178728   9.232   2.755   6.206
24978SOL    HW278729   9.129   2.849   6.123
24979SOL     OW78730   9.089   2.970   6.018
24979SOL    HW178731   9.175   2.972   5.966
24979SOL    HW278732   9.103   3.017   6.106
24980SOL     OW78733   7.561   2.599   7.183
24980SOL    HW178734   7.649   2.586   7.228
24980SOL    HW278735   7.548   2.696   7.161
24981SOL     OW78736   8.061   3.227   6.312
24981SOL    HW178737   8.012   3.140   6.321
24981SOL    HW278738   8.038   3.270   6.225
24982SOL     OW78739   8.741   3.090   7.009
24982SOL    HW178740   8.778   3.017   6.951
24982SOL    HW278741   8.793   3.095   7.094
24983SOL     OW78742   8.257   1.866   6.088
24983SOL    HW178743   8.297   1.957   6.079
24983SOL    HW278744   8.157   1.874   6.094
24984SOL     OW78745   7.645   2.838   6.850
24984SOL    HW178746   7.734   2.793   6.836
24984SOL    HW278747   7.572   2.773   6.831
24985SOL     OW78748   8.973   2.861   5.776
24985SOL    HW178749   8.910   2.785   5.789
24985SOL    HW278750   9.021   2.879   5.862
24986SOL     OW78751   8.635   3.654   7.202
24986SOL    HW178752   8.659   3.714   7.126
24986SOL    HW278753   8.642   3.559   7.172
24987SOL     OW78754   7.765   2.113   7.387
24987SOL    HW178755   7.836   2.184   7.393
24987SOL    HW278756   7.677   2.152   7.415
24988SOL     OW78757   8.914   3.279   6.539
24988SOL    HW178758   8.855   3.285   6.619
24988SOL    HW278759   8.899   3.191   6.493
24989SOL     OW78760   9.115   3.576   6.158
24989SOL    HW178761   9.074   3.553   6.070
24989SOL    HW278762   9.097   3.502   6.223
24990SOL     OW78763   8.046   2.591   5.856
24990SOL    HW178764   8.070   2.660   5.788
24990SOL    HW278765   7.968   2.624   5.910
24991SOL     OW78766   8.729   2.207   6.530
24991SOL    HW178767   8.643   2.157   6.517
24991SOL    HW278768   8.791   2.153   6.586
24992SOL     OW78769   9.024   3.524   5.893
24992SOL    HW178770   9.113   3.570   5.896
24992SOL    HW278771   9.003   3.500   5.798
24993SOL     OW78772   8.255   2.467   7.051
24993SOL    HW178773   8.208   2.464   7.140
24993SOL    HW278774   8.204   2.412   6.985
24994SOL     OW78775   8.842   2.331   7.260
24994SOL    HW178776   8.822   2.374   7.348
24994SOL    HW278777   8.920   2.269   7.269
24995SOL     OW78778   8.421   2.752   7.158
24995SOL    HW178779   8.467   2.668   7.129
24995SOL    HW278780   8.365   2.786   7.083
24996SOL     OW78781   8.439   2.272   6.828
24996SOL    HW178782   8.362   2.306   6.882
24996SOL    HW278783   8.405   2.221   6.749
24997SOL     OW78784   8.489   2.563   6.015
24997SOL    HW178785   8.515   2.559   6.111
24997SOL    HW278786   8.404   2.512   6.001
24998SOL     OW78787   7.524   2.673   6.375
24998SOL    HW178788   7.623   2.661   6.384
24998SOL    HW278789   7.500   2.768   6.396
24999SOL     OW78790   7.578   3.683   7.157
24999SOL    HW178791   7.568   3.668   7.256
24999SOL    HW278792   7.492   3.719   7.121
25000SOL     OW78793   9.167   2.447   7.417
25000SOL    HW178794   9.141   2.536   7.381
25000SOL    HW278795   9.165   2.379   7.344
25001SOL     OW78796   8.810   3.006   6.131
25001SOL    HW178797   8.893   2.977   6.083
25001SOL    HW278798   8.761   3.073   6.075
25002SOL     OW78799   7.998   2.058   6.471
25002SOL    HW178800   7.993   2.053   6.571
25002SOL    HW278801   8.000   2.154   6.442
25003SOL     OW78802   8.456   3.318   6.063
25003SOL    HW178803   8.410   3.390   6.011
25003SOL    HW278804   8.452   3.338   6.161
25004SOL     OW78805   7.799   3.663   6.439
25004SOL    HW178806   7.849   3.577   6.445
25004SOL    HW278807   7.864   3.740   6.436
25005SOL     OW78808   9.243   2.928   6.459
25005SOL    HW178809   9.181   2.913   6.383
25005SOL    HW278810   9.191   2.939   6.544
25006SOL     OW78811   8.675   3.412   7.092
25006SOL    HW178812   8.681   3.335   7.156
25006SOL    HW278813   8.623   3.386   7.012
25007SOL     OW78814   7.769   2.805   5.828
25007SOL    HW178815   7.851   2.844   5.786
25007SOL    HW278816   7.742   2.723   5.779
25008SOL     OW78817   8.906   2.597   6.314
25008SOL    HW178818   8.901   2.532   6.389
25008SOL    HW278819   8.986   2.656   6.327
25009SOL     OW78820   7.909   3.128   7.313
25009SOL    HW178821   7.859   3.129   7.227
25009SOL    HW278822   7.846   3.110   7.389
25010SOL     OW78823   8.559   3.638   5.823
25010SOL    HW178824   8.499   3.576   5.873
25010SOL    HW278825   8.590   3.594   5.738
25011SOL     OW78826   7.650   2.147   7.084
25011SOL    HW178827   7.570   2.207   7.071
25011SOL    HW278828   7.640   2.098   7.170
25012SOL     OW78829   9.080   3.239   5.667
25012SOL    HW178830   9.048   3.333   5.657
25012SOL    HW278831   9.004   3.176   5.655
25013SOL     OW78832   7.912   3.605   5.909
25013SOL    HW178833   7.945   3.644   5.995
25013SOL    HW278834   7.988   3.598   5.844
25014SOL     OW78835   7.697   3.647   6.827
25014SOL    HW178836   7.754   3.582   6.877
25014SOL    HW278837   7.681   3.614   6.734
25015SOL     OW78838   8.388   3.560   6.490
25015SOL    HW178839   8.468   3.503   6.511
25015SOL    HW278840   8.339   3.520   6.413
25016SOL     OW78841   7.830   2.562   6.066
25016SOL    HW178842   7.875   2.472   6.063
25016SOL    HW278843   7.736   2.551   6.099
25017SOL     OW78844   8.995   2.084   7.315
25017SOL    HW178845   8.990   2.121   7.407
25017SOL    HW278846   8.923   2.015   7.303
25018SOL     OW78847   8.062   1.984   5.703
25018SOL    HW178848   8.160   1.962   5.710
25018SOL    HW278849   8.031   1.967   5.610
25019SOL     OW78850   8.229   2.126   7.335
25019SOL    HW178851   8.296   2.065   7.378
25019SOL    HW278852   8.156   2.145   7.400
25020SOL     OW78853   8.336   3.376   6.781
25020SOL    HW178854   8.313   3.351   6.687
25020SOL    HW278855   8.397   3.307   6.820
25021SOL     OW78856   8.799   2.452   7.019
25021SOL    HW178857   8.827   2.409   7.104
25021SOL    HW278858   8.824   2.548   7.020
25022SOL     OW78859   8.251   3.264   6.510
25022SOL    HW178860   8.341   3.278   6.468
25022SOL    HW278861   8.180   3.266   6.439
25023SOL     OW78862   8.370   2.365   6.485
25023SOL    HW178863   8.345   2.356   6.389
25023SOL    HW278864   8.418   2.283   6.516
25024SOL     OW78865   7.987   1.926   6.098
25024SOL    HW178866   7.906   1.927   6.156
25024SOL    HW278867   7.990   2.009   6.043
25025SOL     OW78868   8.882   3.050   5.627
25025SOL    HW178869   8.914   2.974   5.684
25025SOL    HW278870   8.790   3.077   5.657
25026SOL     OW78871   8.524   2.545   7.050
25026SOL    HW178872   8.444   2.484   7.053
25026SOL    HW278873   8.605   2.492   7.026
25027SOL     OW78874   8.675   3.432   6.379
25027SOL    HW178875   8.696   3.506   6.314
25027SOL    HW278876   8.743   3.432   6.452
25028SOL     OW78877   7.907   3.014   6.327
25028SOL    HW178878   7.836   2.987   6.392
25028SOL    HW278879   7.881   2.986   6.234
25029SOL     OW78880   8.719   3.659   6.177
25029SOL    HW178881   8.763   3.723   6.113
25029SOL    HW278882   8.669   3.711   6.247
25030SOL     OW78883   7.526   2.418   6.972
25030SOL    HW178884   7.618   2.417   6.931
25030SOL    HW278885   7.520   2.492   7.039
25031SOL     OW78886   8.009   2.084   6.733
25031SOL    HW178887   8.047   2.000   6.770
25031SOL    HW278888   7.921   2.103   6.777
25032SOL     OW78889   8.314   2.316   6.228
25032SOL    HW178890   8.282   2.388   6.166
25032SOL    HW278891   8.338   2.235   6.175
25033SOL     OW78892   8.465   1.901   6.339
25033SOL    HW178893   8.393   1.906   6.270
25033SOL    HW278894   8.441   1.832   6.408
25034SOL     OW78895   8.877   3.035   6.453
25034SOL    HW178896   8.822   2.951   6.446
25034SOL    HW278897   8.903   3.064   6.361
25035SOL     OW78898   8.914   2.452   6.578
25035SOL    HW178899   8.884   2.357   6.585
25035SOL    HW278900   8.987   2.468   6.644
25036SOL     OW78901   9.305   2.695   5.963
25036SOL    HW178902   9.347   2.631   6.027
25036SOL    HW278903   9.267   2.644   5.885
25037SOL     OW78904   7.936   3.247   5.760
25037SOL    HW178905   7.849   3.232   5.807
25037SOL    HW278906   7.919   3.273   5.665
25038SOL     OW78907   9.112   3.142   6.243
25038SOL    HW178908   9.211   3.150   6.257
25038SOL    HW278909   9.067   3.226   6.274
25039SOL     OW78910   7.975   2.118   5.914
25039SOL    HW178911   8.002   2.059   5.839
25039SOL    HW278912   7.975   2.213   5.883
25040SOL     OW78913   9.202   3.085   7.174
25040SOL    HW178914   9.293   3.046   7.161
25040SOL    HW278915   9.210   3.181   7.198
25041SOL     OW78916   8.512   3.209   6.926
25041SOL    HW178917   8.432   3.186   6.981
25041SOL    HW278918   8.595   3.183   6.975
25042SOL     OW78919   9.040   3.491   7.211
25042SOL    HW178920   9.067   3.525   7.121
25042SOL    HW278921   9.119   3.453   7.257
25043SOL     OW78922   8.559   3.057   6.686
25043SOL    HW178923   8.519   3.101   6.767
25043SOL    HW278924   8.518   3.094   6.603
25044SOL     OW78925   9.086   2.961   6.665
25044SOL    HW178926   9.091   3.042   6.724
25044SOL    HW278927   9.000   2.963   6.614
25045SOL     OW78928   8.363   1.951   6.988
25045SOL    HW178929   8.388   1.931   6.893
25045SOL    HW278930   8.435   2.007   7.030
25046SOL     OW78931   8.428   2.978   7.305
25046SOL    HW178932   8.329   2.984   7.315
25046SOL    HW278933   8.451   2.898   7.249
25047SOL     OW78934   8.153   2.912   5.954
25047SOL    HW178935   8.139   2.919   6.053
25047SOL    HW278936   8.237   2.861   5.936
25048SOL     OW78937   7.858   2.675   6.837
25048SOL    HW178938   7.944   2.687   6.887
25048SOL    HW278939   7.816   2.588   6.864
25049SOL     OW78940   8.722   2.248   6.848
25049SOL    HW178941   8.743   2.322   6.912
25049SOL    HW278942   8.633   2.265   6.805
25050SOL     OW78943   7.512   3.426   6.917
25050SOL    HW178944   7.466   3.508   6.883
25050SOL    HW278945   7.610   3.445   6.926
25051SOL     OW78946   7.815   2.962   6.087
25051SOL    HW178947   7.808   3.045   6.031
25051SOL    HW278948   7.819   2.882   6.027
25052SOL     OW78949   8.014   2.399   6.451
25052SOL    HW178950   8.026   2.465   6.377
25052SOL    HW278951   8.060   2.433   6.534
25053SOL     OW78952   8.700   3.210   5.974
25053SOL    HW178953   8.750   3.287   6.014
25053SOL    HW278954   8.605   3.212   6.006
25054SOL     OW78955   8.720   3.307   6.728
25054SOL    HW178956   8.767   3.320   6.815
25054SOL    HW278957   8.654   3.233   6.737
25055SOL     OW78958   9.030   2.501   6.058
25055SOL    HW178959   8.999   2.562   6.131
25055SOL    HW278960   9.080   2.553   5.989
25056SOL     OW78961   7.802   3.372   6.915
25056SOL    HW178962   7.781   3.328   6.828
25056SOL    HW278963   7.899   3.398   6.918
25057SOL     OW78964   7.850   2.613   7.184
25057SOL    HW178965   7.918   2.668   7.137
25057SOL    HW278966   7.890   2.525   7.211
25058SOL     OW78967   9.035   2.641   7.256
25058SOL    HW178968   8.943   2.679   7.251
25058SOL    HW278969   9.095   2.688   7.191
25059SOL     OW78970   8.461   1.967   7.356
25059SOL    HW178971   8.467   2.052   7.304
25059SOL    HW278972   8.493   1.891   7.299
25060SOL     OW78973   7.952   1.912   7.326
25060SOL    HW178974   7.910   1.855   7.256
25060SOL    HW278975   7.886   1.981   7.358
25061SOL     OW78976   8.021   2.732   6.615
25061SOL    HW178977   8.065   2.821   6.606
25061SOL    HW278978   7.958   2.732   6.692
25062SOL     OW78979   8.808   2.724   6.631
25062SOL    HW178980   8.733   2.724   6.565
25062SOL    HW278981   8.845   2.632   6.640
25063SOL     OW78982   7.755   2.075   6.817
25063SOL    HW178983   7.732   2.112   6.907
25063SOL    HW278984   7.725   1.980   6.811
25064SOL     OW78985   7.485   3.172   6.868
25064SOL    HW178986   7.538   3.123   6.936
25064SOL    HW278987   7.507   3.270   6.873
25065SOL     OW78988   8.180   2.496   6.650
25065SOL    HW178989   8.239   2.470   6.574
25065SOL    HW278990   8.152   2.592   6.639
25066SOL     OW78991   9.176   2.797   7.440
25066SOL    HW178992   9.130   2.790   7.351
25066SOL    HW278993   9.114   2.841   7.506
25067SOL     OW78994   7.755   1.925   6.204
25067SOL    HW178995   7.744   2.019   6.237
25067SOL    HW278996   7.750   1.862   6.281
25068SOL     OW78997   8.471   2.628   6.552
25068SOL    HW178998   8.486   2.649   6.648
25068SOL    HW278999   8.441   2.533   6.543
25069SOL     OW79000   8.428   3.435   7.286
25069SOL    HW179001   8.408   3.479   7.198
25069SOL    HW279002   8.467   3.344   7.270
25070SOL     OW79003   9.307   3.380   7.191
25070SOL    HW179004   9.321   3.407   7.096
25070SOL    HW279005   9.390   3.402   7.244
25071SOL     OW79006   7.798   2.760   7.390
25071SOL    HW179007   7.874   2.804   7.438
25071SOL    HW279008   7.833   2.713   7.308
25072SOL     OW79009   8.751   2.700   5.628
25072SOL    HW179010   8.785   2.607   5.643
25072SOL    HW279011   8.769   2.727   5.533
25073SOL     OW79012   8.516   3.195   6.435
25073SOL    HW179013   8.523   3.111   6.380
25073SOL    HW279014   8.578   3.264   6.399
25074SOL     OW79015   7.767   2.672   6.535
25074SOL    HW179016   7.860   2.708   6.540
25074SOL    HW279017   7.761   2.587   6.587
25075SOL     OW79018   7.787   2.371   6.592
25075SOL    HW179019   7.735   2.288   6.575
25075SOL    HW279020   7.864   2.376   6.528
25076SOL     OW79021   8.586   2.242   7.264
25076SOL    HW179022   8.541   2.305   7.328
25076SOL    HW279023   8.679   2.273   7.247
25077SOL     OW79024   8.608   2.069   7.063
25077SOL    HW179025   8.608   2.133   7.140
25077SOL    HW279026   8.636   2.117   6.980
25078SOL     OW79027   7.456   3.188   5.786
25078SOL    HW179028   7.363   3.209   5.755
25078SOL    HW279029   7.466   3.089   5.799
25079SOL     OW79030   7.536   3.663   6.513
25079SOL    HW179031   7.494   3.577   6.486
25079SOL    HW279032   7.630   3.666   6.479
25080SOL     OW79033   7.952   3.430   6.496
25080SOL    HW179034   8.018   3.504   6.505
25080SOL    HW279035   7.996   3.351   6.454
25081SOL     OW79036   8.450   2.658   6.824
25081SOL    HW179037   8.491   2.626   6.910
25081SOL    HW279038   8.354   2.631   6.821
25082SOL     OW79039   7.488   2.406   6.700
25082SOL    HW179040   7.573   2.373   6.659
25082SOL    HW279041   7.501   2.421   6.798
25083SOL     OW79042   7.637   2.382   7.308
25083SOL    HW179043   7.696   2.342   7.238
25083SOL    HW279044   7.579   2.453   7.267
25084SOL     OW79045   8.817   2.812   7.246
25084SOL    HW179046   8.856   2.901   7.266
25084SOL    HW279047   8.827   2.792   7.149
25085SOL     OW79048   8.263   2.434   5.911
25085SOL    HW179049   8.270   2.345   5.865
25085SOL    HW279050   8.169   2.468   5.903
25086SOL     OW79051   9.105   2.466   6.792
25086SOL    HW179052   9.067   2.397   6.854
25086SOL    HW279053   9.187   2.430   6.748
25087SOL     OW79054   7.700   3.426   7.330
25087SOL    HW179055   7.670   3.483   7.406
25087SOL    HW279056   7.693   3.329   7.356
25088SOL     OW79057   8.119   2.326   6.855
25088SOL    HW179058   8.085   2.237   6.825
25088SOL    HW279059   8.145   2.380   6.775
25089SOL     OW79060   8.378   3.540   7.051
25089SOL    HW179061   8.354   3.522   6.956
25089SOL    HW279062   8.408   3.634   7.061
25090SOL     OW79063   7.921   2.362   5.777
25090SOL    HW179064   7.982   2.442   5.781
25090SOL    HW279065   7.826   2.393   5.784
25091SOL     OW79066   7.607   2.999   7.052
25091SOL    HW179067   7.629   2.938   7.128
25091SOL    HW279068   7.617   2.950   6.966
25092SOL     OW79069   8.795   2.921   6.820
25092SOL    HW179070   8.819   2.858   6.746
25092SOL    HW279071   8.705   2.961   6.802
25093SOL     OW79072   8.750   2.717   5.895
25093SOL    HW179073   8.664   2.686   5.937
25093SOL    HW279074   8.746   2.703   5.796
25094SOL     OW79075   9.207   3.609   6.740
25094SOL    HW179076   9.268   3.639   6.667
25094SOL    HW279077   9.169   3.520   6.718
25095SOL     OW79078   8.700   3.593   6.714
25095SOL    HW179079   8.784   3.598   6.660
25095SOL    HW279080   8.677   3.497   6.732
25096SOL     OW79081   7.531   3.120   6.608
25096SOL    HW179082   7.526   3.119   6.708
25096SOL    HW279083   7.448   3.079   6.570
25097SOL     OW79084   8.136   3.524   7.302
25097SOL    HW179085   8.080   3.605   7.311
25097SOL    HW279086   8.188   3.528   7.216
25098SOL     OW79087   9.174   1.997   6.109
25098SOL    HW179088   9.247   1.980   6.042
25098SOL    HW279089   9.143   1.910   6.147
25099SOL     OW79090   8.836   3.435   6.063
25099SOL    HW179091   8.903   3.447   5.989
25099SOL    HW279092   8.796   3.524   6.086
25100SOL     OW79093   7.578   3.656   7.437
25100SOL    HW179094   7.537   3.582   7.490
25100SOL    HW279095   7.642   3.707   7.495
25101SOL     OW79096   8.728   2.789   6.258
25101SOL    HW179097   8.788   2.708   6.260
25101SOL    HW279098   8.768   2.858   6.198
25102SOL     OW79099   8.278   3.135   7.008
25102SOL    HW179100   8.273   3.168   7.103
25102SOL    HW279101   8.192   3.154   6.962
25103SOL     OW79102   8.120   3.478   5.740
25103SOL    HW179103   8.129   3.488   5.641
25103SOL    HW279104   8.080   3.389   5.761
25104SOL     OW79105   9.098   3.582   6.980
25104SOL    HW179106   9.151   3.592   6.896
25104SOL    HW279107   9.071   3.672   7.014
25105SOL     OW79108   9.289   2.037   6.549
25105SOL    HW179109   9.328   1.952   6.513
25105SOL    HW279110   9.191   2.039   6.530
25106SOL     OW79111   7.711   2.188   6.306
25106SOL    HW179112   7.632   2.239   6.272
25106SOL    HW279113   7.702   2.173   6.404
25107SOL     OW79114   8.642   3.474   5.617
25107SOL    HW179115   8.648   3.381   5.654
25107SOL    HW279116   8.583   3.474   5.537
25108SOL     OW79117   8.270   2.864   6.958
25108SOL    HW179118   8.310   2.863   6.866
25108SOL    HW279119   8.280   2.956   6.998
25109SOL     OW79120   8.364   2.772   5.877
25109SOL    HW179121   8.427   2.810   5.809
25109SOL    HW279122   8.404   2.689   5.916
25110SOL     OW79123   8.952   3.469   5.630
25110SOL    HW179124   8.860   3.506   5.637
25110SOL    HW279125   8.990   3.489   5.540
25111SOL     OW79126   7.820   3.150   7.076
25111SOL    HW179127   7.807   3.243   7.042
25111SOL    HW279128   7.736   3.098   7.063
25112SOL     OW79129   9.062   3.154   6.875
25112SOL    HW179130   9.122   3.157   6.955
25112SOL    HW279131   8.987   3.218   6.888
25113SOL     OW79132   8.487   2.960   6.282
25113SOL    HW179133   8.417   2.913   6.336
25113SOL    HW279134   8.546   2.892   6.239
25114SOL     OW79135   8.462   2.098   6.557
25114SOL    HW179136   8.454   2.062   6.464
25114SOL    HW279137   8.460   2.022   6.622
25115SOL     OW79138   8.038   3.349   6.077
25115SOL    HW179139   8.080   3.291   6.007
25115SOL    HW279140   7.994   3.428   6.033
25116SOL     OW79141   9.157   2.247   6.967
25116SOL    HW179142   9.230   2.316   6.971
25116SOL    HW279143   9.185   2.172   6.908
25117SOL     OW79144   7.703   3.210   5.876
25117SOL    HW179145   7.607   3.211   5.849
25117SOL    HW279146   7.715   3.263   5.960
25118SOL     OW79147   7.553   2.875   7.312
25118SOL    HW179148   7.476   2.842   7.366
25118SOL    HW279149   7.638   2.845   7.354
25119SOL     OW79150   8.120   2.065   7.075
25119SOL    HW179151   8.210   2.049   7.035
25119SOL    HW279152   8.128   2.070   7.174
25120SOL     OW79153   7.523   2.207   5.619
25120SOL    HW179154   7.431   2.179   5.590
25120SOL    HW279155   7.554   2.284   5.563
25121SOL     OW79156   8.888   2.718   6.984
25121SOL    HW179157   8.831   2.770   6.921
25121SOL    HW279158   8.984   2.730   6.960
25122SOL     OW79159   8.631   3.197   5.705
25122SOL    HW179160   8.532   3.186   5.707
25122SOL    HW279161   8.665   3.212   5.798
25123SOL     OW79162   8.061   2.704   7.017
25123SOL    HW179163   8.117   2.785   7.000
25123SOL    HW279164   8.120   2.624   7.020
25124SOL     OW79165   8.941   3.629   6.545
25124SOL    HW179166   8.974   3.693   6.476
25124SOL    HW279167   9.007   3.623   6.620
25125SOL     OW79168   8.164   2.427   7.294
25125SOL    HW179169   8.183   2.492   7.368
25125SOL    HW279170   8.224   2.347   7.303
25126SOL     OW79171   8.898   3.082   7.219
25126SOL    HW179172   8.889   3.072   7.318
25126SOL    HW279173   8.994   3.075   7.193
25127SOL     OW79174   7.838   3.603   7.146
25127SOL    HW179175   7.747   3.644   7.144
25127SOL    HW279176   7.831   3.509   7.178
25128SOL     OW79177   9.122   2.745   6.840
25128SOL    HW179178   9.095   2.656   6.803
25128SOL    HW279179   9.123   2.813   6.767
25129SOL     OW79180   8.042   2.607   6.238
25129SOL    HW179181   8.092   2.692   6.219
25129SOL    HW279182   7.954   2.609   6.190
25130SOL     OW79183   9.225   2.204   7.228
25130SOL    HW179184   9.208   2.235   7.134
25130SOL    HW279185   9.141   2.167   7.266
25131SOL     OW79186   9.178   2.796   7.103
25131SOL    HW179187   9.216   2.887   7.118
25131SOL    HW279188   9.170   2.779   7.004
25132SOL     OW79189   8.307   3.236   5.602
25132SOL    HW179190   8.261   3.251   5.690
25132SOL    HW279191   8.351   3.321   5.572
25133SOL     OW79192   8.109   3.652   6.539
25133SOL    HW179193   8.063   3.740   6.526
25133SOL    HW279194   8.208   3.664   6.532
25134SOL     OW79195   8.307   2.818   6.447
25134SOL    HW179196   8.361   2.749   6.495
25134SOL    HW279197   8.275   2.887   6.513
25135SOL     OW79198   8.531   2.846   5.673
25135SOL    HW179199   8.508   2.899   5.591
25135SOL    HW279200   8.612   2.790   5.654
25136SOL     OW79201   9.309   3.431   6.437
25136SOL    HW179202   9.238   3.419   6.367
25136SOL    HW279203   9.310   3.352   6.497
25137SOL     OW79204   7.669   3.176   7.430
25137SOL    HW179205   7.604   3.103   7.409
25137SOL    HW279206   7.673   3.190   7.528
25138SOL     OW79207   7.527   3.102   6.239
25138SOL    HW179208   7.526   3.055   6.327
25138SOL    HW279209   7.609   3.074   6.188
25139SOL     OW79210   8.120   3.253   7.210
25139SOL    HW179211   8.042   3.203   7.248
25139SOL    HW279212   8.117   3.348   7.241
25140SOL     OW79213   9.272   2.054   6.813
25140SOL    HW179214   9.268   1.964   6.857
25140SOL    HW279215   9.275   2.043   6.714
25141SOL     OW79216   7.876   2.286   6.106
25141SOL    HW179217   7.906   2.214   6.044
25141SOL    HW279218   7.837   2.246   6.189
25142SOL     OW79219   9.153   3.349   6.690
25142SOL    HW179220   9.060   3.324   6.663
25142SOL    HW279221   9.179   3.299   6.772
25143SOL     OW79222   7.765   2.409   6.866
25143SOL    HW179223   7.803   2.350   6.938
25143SOL    HW279224   7.805   2.383   6.778
25144SOL     OW79225   8.260   3.448   6.273
25144SOL    HW179226   8.292   3.458   6.179
25144SOL    HW279227   8.181   3.386   6.275
25145SOL     OW79228   8.872   2.076   6.698
25145SOL    HW179229   8.924   2.011   6.753
25145SOL    HW279230   8.823   2.139   6.759
25146SOL     OW79231   8.449   1.896   6.740
25146SOL    HW179232   8.386   1.824   6.709
25146SOL    HW279233   8.542   1.860   6.740
25147SOL     OW79234   8.218   3.192   5.887
25147SOL    HW179235   8.172   3.105   5.904
25147SOL    HW279236   8.309   3.189   5.928
25148SOL     OW79237   8.066   3.429   6.870
25148SOL    HW179238   8.061   3.511   6.927
25148SOL    HW279239   8.155   3.426   6.825
25149SOL     OW79240   8.800   1.914   5.754
25149SOL    HW179241   8.835   1.873   5.670
25149SOL    HW279242   8.710   1.876   5.774
25150SOL     OW79243   8.748   2.315   6.277
25150SOL    HW179244   8.689   2.395   6.281
25150SOL    HW279245   8.763   2.280   6.370
25151SOL     OW79246   9.041   2.083   6.468
25151SOL    HW179247   8.957   2.082   6.522
25151SOL    HW279248   9.043   2.166   6.412
25152SOL     OW79249   7.487   2.939   5.886
25152SOL    HW179250   7.586   2.928   5.877
25152SOL    HW279251   7.447   2.853   5.918
25153SOL     OW79252   8.323   3.508   5.923
25153SOL    HW179253   8.246   3.473   5.869
25153SOL    HW279254   8.291   3.579   5.985
25154SOL     OW79255   7.678   2.490   7.561
25154SOL    HW179256   7.585   2.488   7.598
25154SOL    HW279257   7.679   2.451   7.469
25155SOL     OW79258   7.673   2.137   8.444
25155SOL    HW179259   7.708   2.120   8.536
25155SOL    HW279260   7.585   2.092   8.432
25156SOL     OW79261   7.467   2.230   8.095
25156SOL    HW179262   7.385   2.273   8.134
25156SOL    HW279263   7.439   2.157   8.032
25157SOL     OW79264   8.017   3.137   8.613
25157SOL    HW179265   7.924   3.130   8.576
25157SOL    HW279266   8.028   3.226   8.657
25158SOL     OW79267   9.003   3.373   8.151
25158SOL    HW179268   8.946   3.357   8.232
25158SOL    HW279269   8.944   3.383   8.071
25159SOL     OW79270   8.583   2.565   8.165
25159SOL    HW179271   8.640   2.643   8.140
25159SOL    HW279272   8.523   2.591   8.241
25160SOL     OW79273   9.203   2.469   7.679
25160SOL    HW179274   9.191   2.456   7.580
25160SOL    HW279275   9.173   2.388   7.728
25161SOL     OW79276   8.216   3.006   8.471
25161SOL    HW179277   8.138   3.023   8.531
25161SOL    HW279278   8.250   3.093   8.435
25162SOL     OW79279   8.298   2.660   9.271
25162SOL    HW179280   8.294   2.736   9.336
25162SOL    HW279281   8.320   2.696   9.180
25163SOL     OW79282   8.133   2.874   8.113
25163SOL    HW179283   8.202   2.858   8.183
25163SOL    HW279284   8.060   2.931   8.151
25164SOL     OW79285   8.134   3.023   9.251
25164SOL    HW179286   8.194   3.102   9.265
25164SOL    HW279287   8.048   3.054   9.210
25165SOL     OW79288   7.783   3.297   8.509
25165SOL    HW179289   7.705   3.266   8.456
25165SOL    HW279290   7.841   3.355   8.452
25166SOL     OW79291   8.908   3.367   8.787
25166SOL    HW179292   8.932   3.461   8.813
25166SOL    HW279293   8.892   3.313   8.869
25167SOL     OW79294   7.886   2.254   8.947
25167SOL    HW179295   7.968   2.198   8.956
25167SOL    HW279296   7.805   2.196   8.951
25168SOL     OW79297   9.051   2.309   8.185
25168SOL    HW179298   8.977   2.355   8.135
25168SOL    HW279299   9.102   2.377   8.238
25169SOL     OW79300   7.679   3.575   7.931
25169SOL    HW179301   7.713   3.652   7.985
25169SOL    HW279302   7.723   3.575   7.841
25170SOL     OW79303   8.575   3.203   9.138
25170SOL    HW179304   8.622   3.203   9.226
25170SOL    HW279305   8.527   3.116   9.127
25171SOL     OW79306   7.678   3.296   7.986
25171SOL    HW179307   7.652   3.392   7.986
25171SOL    HW279308   7.607   3.242   8.031
25172SOL     OW79309   7.688   2.953   8.334
25172SOL    HW179310   7.702   2.869   8.386
25172SOL    HW279311   7.633   3.017   8.389
25173SOL     OW79312   8.068   3.648   8.887
25173SOL    HW179313   7.976   3.631   8.922
25173SOL    HW279314   8.096   3.740   8.913
25174SOL     OW79315   8.054   2.826   7.571
25174SOL    HW179316   8.061   2.910   7.517
25174SOL    HW279317   8.100   2.839   7.659
25175SOL     OW79318   9.042   1.976   8.928
25175SOL    HW179319   9.024   2.043   8.856
25175SOL    HW279320   9.039   2.022   9.017
25176SOL     OW79321   7.570   2.505   8.011
25176SOL    HW179322   7.525   2.417   8.028
25176SOL    HW279323   7.569   2.559   8.095
25177SOL     OW79324   9.290   3.629   7.807
25177SOL    HW179325   9.344   3.600   7.887
25177SOL    HW279326   9.320   3.719   7.778
25178SOL     OW79327   7.475   3.458   7.565
25178SOL    HW179328   7.456   3.362   7.586
25178SOL    HW279329   7.442   3.516   7.640
25179SOL     OW79330   7.561   2.599   9.045
25179SOL    HW179331   7.649   2.586   9.090
25179SOL    HW279332   7.548   2.696   9.023
25180SOL     OW79333   8.061   3.227   8.174
25180SOL    HW179334   8.012   3.140   8.183
25180SOL    HW279335   8.038   3.270   8.087
25181SOL     OW79336   8.741   3.090   8.871
25181SOL    HW179337   8.778   3.017   8.813
25181SOL    HW279338   8.793   3.095   8.956
25182SOL     OW79339   8.257   1.866   7.950
25182SOL    HW179340   8.297   1.957   7.941
25182SOL    HW279341   8.157   1.874   7.956
25183SOL     OW79342   7.645   2.838   8.712
25183SOL    HW179343   7.734   2.793   8.698
25183SOL    HW279344   7.572   2.773   8.693
25184SOL     OW79345   8.635   3.654   9.064
25184SOL    HW179346   8.659   3.714   8.988
25184SOL    HW279347   8.642   3.559   9.034
25185SOL     OW79348   7.765   2.113   9.249
25185SOL    HW179349   7.836   2.184   9.255
25185SOL    HW279350   7.677   2.152   9.277
25186SOL     OW79351   8.914   3.279   8.401
25186SOL    HW179352   8.855   3.285   8.481
25186SOL    HW279353   8.899   3.191   8.355
25187SOL     OW79354   9.115   3.576   8.020
25187SOL    HW179355   9.074   3.553   7.932
25187SOL    HW279356   9.097   3.502   8.085
25188SOL     OW79357   8.046   2.591   7.718
25188SOL    HW179358   8.070   2.660   7.650
25188SOL    HW279359   7.968   2.624   7.772
25189SOL     OW79360   8.729   2.207   8.392
25189SOL    HW179361   8.643   2.157   8.379
25189SOL    HW279362   8.791   2.153   8.448
25190SOL     OW79363   9.024   3.524   7.755
25190SOL    HW179364   9.113   3.570   7.758
25190SOL    HW279365   9.003   3.500   7.660
25191SOL     OW79366   8.255   2.467   8.913
25191SOL    HW179367   8.208   2.464   9.002
25191SOL    HW279368   8.204   2.412   8.847
25192SOL     OW79369   8.842   2.331   9.122
25192SOL    HW179370   8.822   2.374   9.210
25192SOL    HW279371   8.920   2.269   9.131
25193SOL     OW79372   8.421   2.752   9.020
25193SOL    HW179373   8.467   2.668   8.991
25193SOL    HW279374   8.365   2.786   8.945
25194SOL     OW79375   8.489   2.563   7.877
25194SOL    HW179376   8.515   2.559   7.973
25194SOL    HW279377   8.404   2.512   7.863
25195SOL     OW79378   7.524   2.673   8.237
25195SOL    HW179379   7.623   2.661   8.246
25195SOL    HW279380   7.500   2.768   8.258
25196SOL     OW79381   7.578   3.683   9.019
25196SOL    HW179382   7.568   3.668   9.118
25196SOL    HW279383   7.492   3.719   8.983
25197SOL     OW79384   8.313   2.210   7.643
25197SOL    HW179385   8.372   2.273   7.594
25197SOL    HW279386   8.332   2.116   7.614
25198SOL     OW79387   9.167   2.447   9.279
25198SOL    HW179388   9.141   2.536   9.243
25198SOL    HW279389   9.165   2.379   9.206
25199SOL     OW79390   7.998   2.058   8.333
25199SOL    HW179391   7.993   2.053   8.433
25199SOL    HW279392   8.000   2.154   8.304
25200SOL     OW79393   8.456   3.318   7.925
25200SOL    HW179394   8.410   3.390   7.873
25200SOL    HW279395   8.452   3.338   8.023
25201SOL     OW79396   7.799   3.663   8.301
25201SOL    HW179397   7.849   3.577   8.307
25201SOL    HW279398   7.864   3.740   8.298
25202SOL     OW79399   9.243   2.928   8.321
25202SOL    HW179400   9.181   2.913   8.245
25202SOL    HW279401   9.191   2.939   8.406
25203SOL     OW79402   8.675   3.412   8.954
25203SOL    HW179403   8.681   3.335   9.018
25203SOL    HW279404   8.623   3.386   8.874
25204SOL     OW79405   7.769   2.805   7.690
25204SOL    HW179406   7.851   2.844   7.648
25204SOL    HW279407   7.742   2.723   7.641
25205SOL     OW79408   8.906   2.597   8.176
25205SOL    HW179409   8.901   2.532   8.251
25205SOL    HW279410   8.986   2.656   8.189
25206SOL     OW79411   7.909   3.128   9.175
25206SOL    HW179412   7.859   3.129   9.089
25206SOL    HW279413   7.846   3.110   9.251
25207SOL     OW79414   8.559   3.638   7.685
25207SOL    HW179415   8.499   3.576   7.735
25207SOL    HW279416   8.590   3.594   7.600
25208SOL     OW79417   7.650   2.147   8.946
25208SOL    HW179418   7.570   2.207   8.933
25208SOL    HW279419   7.640   2.098   9.032
25209SOL     OW79420   7.912   3.605   7.771
25209SOL    HW179421   7.945   3.644   7.857
25209SOL    HW279422   7.988   3.598   7.706
25210SOL     OW79423   8.848   1.969   7.874
25210SOL    HW179424   8.824   1.932   7.784
25210SOL    HW279425   8.947   1.985   7.878
25211SOL     OW79426   7.697   3.647   8.689
25211SOL    HW179427   7.754   3.582   8.739
25211SOL    HW279428   7.681   3.614   8.596
25212SOL     OW79429   8.388   3.560   8.352
25212SOL    HW179430   8.468   3.503   8.373
25212SOL    HW279431   8.339   3.520   8.275
25213SOL     OW79432   7.830   2.562   7.928
25213SOL    HW179433   7.875   2.472   7.925
25213SOL    HW279434   7.736   2.551   7.961
25214SOL     OW79435   8.995   2.084   9.177
25214SOL    HW179436   8.990   2.121   9.269
25214SOL    HW279437   8.923   2.015   9.165
25215SOL     OW79438   8.062   1.984   7.565
25215SOL    HW179439   8.160   1.962   7.572
25215SOL    HW279440   8.031   1.967   7.472
25216SOL     OW79441   8.229   2.126   9.197
25216SOL    HW179442   8.296   2.065   9.240
25216SOL    HW279443   8.156   2.145   9.262
25217SOL     OW79444   8.336   3.376   8.643
25217SOL    HW179445   8.313   3.351   8.549
25217SOL    HW279446   8.397   3.307   8.682
25218SOL     OW79447   8.251   3.264   8.372
25218SOL    HW179448   8.341   3.278   8.330
25218SOL    HW279449   8.180   3.266   8.301
25219SOL     OW79450   8.370   2.365   8.347
25219SOL    HW179451   8.345   2.356   8.251
25219SOL    HW279452   8.418   2.283   8.378
25220SOL     OW79453   7.987   1.926   7.960
25220SOL    HW179454   7.906   1.927   8.018
25220SOL    HW279455   7.990   2.009   7.905
25221SOL     OW79456   7.745   1.897   7.619
25221SOL    HW179457   7.794   1.981   7.598
25221SOL    HW279458   7.807   1.832   7.664
25222SOL     OW79459   8.383   2.098   7.928
25222SOL    HW179460   8.335   2.139   7.850
25222SOL    HW279461   8.482   2.096   7.909
25223SOL     OW79462   8.675   3.432   8.241
25223SOL    HW179463   8.696   3.506   8.176
25223SOL    HW279464   8.743   3.432   8.314
25224SOL     OW79465   7.907   3.014   8.189
25224SOL    HW179466   7.836   2.987   8.254
25224SOL    HW279467   7.881   2.986   8.096
25225SOL     OW79468   8.719   3.659   8.039
25225SOL    HW179469   8.763   3.723   7.975
25225SOL    HW279470   8.669   3.711   8.109
25226SOL     OW79471   8.480   2.411   7.464
25226SOL    HW179472   8.439   2.493   7.425
25226SOL    HW279473   8.544   2.437   7.537
25227SOL     OW79474   7.526   2.418   8.834
25227SOL    HW179475   7.618   2.417   8.793
25227SOL    HW279476   7.520   2.492   8.901
25228SOL     OW79477   8.009   2.084   8.595
25228SOL    HW179478   8.047   2.000   8.632
25228SOL    HW279479   7.921   2.103   8.639
25229SOL     OW79480   8.314   2.316   8.090
25229SOL    HW179481   8.282   2.388   8.028
25229SOL    HW279482   8.338   2.235   8.037
25230SOL     OW79483   8.465   1.901   8.201
25230SOL    HW179484   8.393   1.906   8.132
25230SOL    HW279485   8.441   1.832   8.270
25231SOL     OW79486   8.877   3.035   8.315
25231SOL    HW179487   8.822   2.951   8.308
25231SOL    HW279488   8.903   3.064   8.223
25232SOL     OW79489   8.914   2.452   8.440
25232SOL    HW179490   8.884   2.357   8.447
25232SOL    HW279491   8.987   2.468   8.506
25233SOL     OW79492   9.305   2.695   7.825
25233SOL    HW179493   9.347   2.631   7.889
25233SOL    HW279494   9.267   2.644   7.747
25234SOL     OW79495   7.936   3.247   7.622
25234SOL    HW179496   7.849   3.232   7.669
25234SOL    HW279497   7.919   3.273   7.527
25235SOL     OW79498   9.112   3.142   8.105
25235SOL    HW179499   9.211   3.150   8.119
25235SOL    HW279500   9.067   3.226   8.136
25236SOL     OW79501   8.838   2.437   7.526
25236SOL    HW179502   8.784   2.416   7.607
25236SOL    HW279503   8.929   2.396   7.535
25237SOL     OW79504   7.975   2.118   7.776
25237SOL    HW179505   8.002   2.059   7.701
25237SOL    HW279506   7.975   2.213   7.745
25238SOL     OW79507   9.202   3.085   9.036
25238SOL    HW179508   9.293   3.046   9.023
25238SOL    HW279509   9.210   3.181   9.060
25239SOL     OW79510   8.512   3.209   8.788
25239SOL    HW179511   8.432   3.186   8.843
25239SOL    HW279512   8.595   3.183   8.837
25240SOL     OW79513   9.040   3.491   9.073
25240SOL    HW179514   9.067   3.525   8.983
25240SOL    HW279515   9.119   3.453   9.119
25241SOL     OW79516   8.559   3.057   8.548
25241SOL    HW179517   8.519   3.101   8.629
25241SOL    HW279518   8.518   3.094   8.465
25242SOL     OW79519   9.086   2.961   8.527
25242SOL    HW179520   9.091   3.042   8.586
25242SOL    HW279521   9.000   2.963   8.476
25243SOL     OW79522   8.428   2.978   9.167
25243SOL    HW179523   8.329   2.984   9.177
25243SOL    HW279524   8.451   2.898   9.111
25244SOL     OW79525   8.153   2.912   7.816
25244SOL    HW179526   8.139   2.919   7.915
25244SOL    HW279527   8.237   2.861   7.798
25245SOL     OW79528   7.858   2.675   8.699
25245SOL    HW179529   7.944   2.687   8.749
25245SOL    HW279530   7.816   2.588   8.726
25246SOL     OW79531   7.512   3.426   8.779
25246SOL    HW179532   7.466   3.508   8.745
25246SOL    HW279533   7.610   3.445   8.788
25247SOL     OW79534   7.815   2.962   7.949
25247SOL    HW179535   7.808   3.045   7.893
25247SOL    HW279536   7.819   2.882   7.889
25248SOL     OW79537   8.014   2.399   8.313
25248SOL    HW179538   8.026   2.465   8.239
25248SOL    HW279539   8.060   2.433   8.396
25249SOL     OW79540   8.700   3.210   7.836
25249SOL    HW179541   8.750   3.287   7.876
25249SOL    HW279542   8.605   3.212   7.868
25250SOL     OW79543   8.720   3.307   8.590
25250SOL    HW179544   8.767   3.320   8.677
25250SOL    HW279545   8.654   3.233   8.599
25251SOL     OW79546   9.030   2.501   7.920
25251SOL    HW179547   8.999   2.562   7.993
25251SOL    HW279548   9.080   2.553   7.851
25252SOL     OW79549   7.802   3.372   8.777
25252SOL    HW179550   7.781   3.328   8.690
25252SOL    HW279551   7.899   3.398   8.780
25253SOL     OW79552   7.850   2.613   9.046
25253SOL    HW179553   7.918   2.668   8.999
25253SOL    HW279554   7.890   2.525   9.073
25254SOL     OW79555   9.035   2.641   9.118
25254SOL    HW179556   8.943   2.679   9.113
25254SOL    HW279557   9.095   2.688   9.053
25255SOL     OW79558   8.461   1.967   9.218
25255SOL    HW179559   8.467   2.052   9.166
25255SOL    HW279560   8.493   1.891   9.161
25256SOL     OW79561   7.952   1.912   9.188
25256SOL    HW179562   7.910   1.855   9.118
25256SOL    HW279563   7.886   1.981   9.220
25257SOL     OW79564   8.021   2.732   8.477
25257SOL    HW179565   8.065   2.821   8.468
25257SOL    HW279566   7.958   2.732   8.554
25258SOL     OW79567   8.808   2.724   8.493
25258SOL    HW179568   8.733   2.724   8.427
25258SOL    HW279569   8.845   2.632   8.502
25259SOL     OW79570   8.657   2.387   7.723
25259SOL    HW179571   8.670   2.303   7.777
25259SOL    HW279572   8.628   2.461   7.783
25260SOL     OW79573   7.755   2.075   8.679
25260SOL    HW179574   7.732   2.112   8.769
25260SOL    HW279575   7.725   1.980   8.673
25261SOL     OW79576   7.485   3.172   8.730
25261SOL    HW179577   7.538   3.123   8.798
25261SOL    HW279578   7.507   3.270   8.735
25262SOL     OW79579   8.180   2.496   8.512
25262SOL    HW179580   8.239   2.470   8.436
25262SOL    HW279581   8.152   2.592   8.501
25263SOL     OW79582   9.176   2.797   9.302
25263SOL    HW179583   9.130   2.790   9.213
25263SOL    HW279584   9.114   2.841   9.368
25264SOL     OW79585   7.755   1.925   8.066
25264SOL    HW179586   7.744   2.019   8.099
25264SOL    HW279587   7.750   1.862   8.143
25265SOL     OW79588   9.070   2.229   7.822
25265SOL    HW179589   9.072   2.153   7.886
25265SOL    HW279590   9.022   2.306   7.862
25266SOL     OW79591   8.471   2.628   8.414
25266SOL    HW179592   8.486   2.649   8.510
25266SOL    HW279593   8.441   2.533   8.405
25267SOL     OW79594   8.428   3.435   9.148
25267SOL    HW179595   8.408   3.479   9.060
25267SOL    HW279596   8.467   3.344   9.132
25268SOL     OW79597   9.307   3.380   9.053
25268SOL    HW179598   9.321   3.407   8.958
25268SOL    HW279599   9.390   3.402   9.106
25269SOL     OW79600   7.798   2.760   9.252
25269SOL    HW179601   7.874   2.804   9.300
25269SOL    HW279602   7.833   2.713   9.170
25270SOL     OW79603   8.988   2.136   7.573
25270SOL    HW179604   8.927   2.061   7.596
25270SOL    HW279605   9.010   2.188   7.656
25271SOL     OW79606   8.751   2.700   7.490
25271SOL    HW179607   8.785   2.607   7.505
25271SOL    HW279608   8.769   2.727   7.395
25272SOL     OW79609   8.516   3.195   8.297
25272SOL    HW179610   8.523   3.111   8.242
25272SOL    HW279611   8.578   3.264   8.261
25273SOL     OW79612   7.767   2.672   8.397
25273SOL    HW179613   7.860   2.708   8.402
25273SOL    HW279614   7.761   2.587   8.449
25274SOL     OW79615   7.787   2.371   8.454
25274SOL    HW179616   7.735   2.288   8.437
25274SOL    HW279617   7.864   2.376   8.390
25275SOL     OW79618   7.456   3.188   7.648
25275SOL    HW179619   7.363   3.209   7.617
25275SOL    HW279620   7.466   3.089   7.661
25276SOL     OW79621   7.536   3.663   8.375
25276SOL    HW179622   7.494   3.577   8.348
25276SOL    HW279623   7.630   3.666   8.341
25277SOL     OW79624   7.952   3.430   8.358
25277SOL    HW179625   8.018   3.504   8.367
25277SOL    HW279626   7.996   3.351   8.316
25278SOL     OW79627   8.450   2.658   8.686
25278SOL    HW179628   8.491   2.626   8.772
25278SOL    HW279629   8.354   2.631   8.683
25279SOL     OW79630   7.488   2.406   8.562
25279SOL    HW179631   7.573   2.373   8.521
25279SOL    HW279632   7.501   2.421   8.660
25280SOL     OW79633   7.637   2.382   9.170
25280SOL    HW179634   7.696   2.342   9.100
25280SOL    HW279635   7.579   2.453   9.129
25281SOL     OW79636   8.817   2.812   9.108
25281SOL    HW179637   8.856   2.901   9.128
25281SOL    HW279638   8.827   2.792   9.011
25282SOL     OW79639   8.263   2.434   7.773
25282SOL    HW179640   8.270   2.345   7.727
25282SOL    HW279641   8.169   2.468   7.765
25283SOL     OW79642   9.105   2.466   8.654
25283SOL    HW179643   9.067   2.397   8.716
25283SOL    HW279644   9.187   2.430   8.610
25284SOL     OW79645   7.700   3.426   9.192
25284SOL    HW179646   7.670   3.483   9.268
25284SOL    HW279647   7.693   3.329   9.218
25285SOL     OW79648   8.119   2.326   8.717
25285SOL    HW179649   8.085   2.237   8.687
25285SOL    HW279650   8.145   2.380   8.637
25286SOL     OW79651   8.378   3.540   8.913
25286SOL    HW179652   8.354   3.522   8.818
25286SOL    HW279653   8.408   3.634   8.923
25287SOL     OW79654   7.921   2.362   7.639
25287SOL    HW179655   7.982   2.442   7.643
25287SOL    HW279656   7.826   2.393   7.646
25288SOL     OW79657   7.607   2.999   8.914
25288SOL    HW179658   7.629   2.938   8.990
25288SOL    HW279659   7.617   2.950   8.828
25289SOL     OW79660   8.795   2.921   8.682
25289SOL    HW179661   8.819   2.858   8.608
25289SOL    HW279662   8.705   2.961   8.664
25290SOL     OW79663   8.750   2.717   7.757
25290SOL    HW179664   8.664   2.686   7.799
25290SOL    HW279665   8.746   2.703   7.658
25291SOL     OW79666   9.207   3.609   8.602
25291SOL    HW179667   9.268   3.639   8.529
25291SOL    HW279668   9.169   3.520   8.580
25292SOL     OW79669   8.700   3.593   8.576
25292SOL    HW179670   8.784   3.598   8.522
25292SOL    HW279671   8.677   3.497   8.594
25293SOL     OW79672   7.531   3.120   8.470
25293SOL    HW179673   7.526   3.119   8.570
25293SOL    HW279674   7.448   3.079   8.432
25294SOL     OW79675   8.136   3.524   9.164
25294SOL    HW179676   8.080   3.605   9.173
25294SOL    HW279677   8.188   3.528   9.078
25295SOL     OW79678   9.174   1.997   7.971
25295SOL    HW179679   9.247   1.980   7.904
25295SOL    HW279680   9.143   1.910   8.009
25296SOL     OW79681   8.836   3.435   7.925
25296SOL    HW179682   8.903   3.447   7.851
25296SOL    HW279683   8.796   3.524   7.948
25297SOL     OW79684   7.578   3.656   9.299
25297SOL    HW179685   7.537   3.582   9.352
25297SOL    HW279686   7.642   3.707   9.357
25298SOL     OW79687   8.728   2.789   8.120
25298SOL    HW179688   8.788   2.708   8.122
25298SOL    HW279689   8.768   2.858   8.060
25299SOL     OW79690   8.278   3.135   8.870
25299SOL    HW179691   8.273   3.168   8.965
25299SOL    HW279692   8.192   3.154   8.824
25300SOL     OW79693   8.120   3.478   7.602
25300SOL    HW179694   8.129   3.488   7.503
25300SOL    HW279695   8.080   3.389   7.623
25301SOL     OW79696   9.098   3.582   8.842
25301SOL    HW179697   9.151   3.592   8.758
25301SOL    HW279698   9.071   3.672   8.876
25302SOL     OW79699   9.289   2.037   8.411
25302SOL    HW179700   9.328   1.952   8.375
25302SOL    HW279701   9.191   2.039   8.392
25303SOL     OW79702   7.711   2.188   8.168
25303SOL    HW179703   7.632   2.239   8.134
25303SOL    HW279704   7.702   2.173   8.266
25304SOL     OW79705   8.642   3.474   7.479
25304SOL    HW179706   8.648   3.381   7.516
25304SOL    HW279707   8.583   3.474   7.399
25305SOL     OW79708   8.270   2.864   8.820
25305SOL    HW179709   8.310   2.863   8.728
25305SOL    HW279710   8.280   2.956   8.860
25306SOL     OW79711   8.364   2.772   7.739
25306SOL    HW179712   8.427   2.810   7.671
25306SOL    HW279713   8.404   2.689   7.778
25307SOL     OW79714   8.952   3.469   7.492
25307SOL    HW179715   8.860   3.506   7.499
25307SOL    HW279716   8.990   3.489   7.402
25308SOL     OW79717   7.820   3.150   8.938
25308SOL    HW179718   7.807   3.243   8.904
25308SOL    HW279719   7.736   3.098   8.925
25309SOL     OW79720   9.062   3.154   8.737
25309SOL    HW179721   9.122   3.157   8.817
25309SOL    HW279722   8.987   3.218   8.750
25310SOL     OW79723   8.487   2.960   8.144
25310SOL    HW179724   8.417   2.913   8.198
25310SOL    HW279725   8.546   2.892   8.101
25311SOL     OW79726   8.038   3.349   7.939
25311SOL    HW179727   8.080   3.291   7.869
25311SOL    HW279728   7.994   3.428   7.895
25312SOL     OW79729   9.157   2.247   8.829
25312SOL    HW179730   9.230   2.316   8.833
25312SOL    HW279731   9.185   2.172   8.770
25313SOL     OW79732   7.703   3.210   7.738
25313SOL    HW179733   7.607   3.211   7.711
25313SOL    HW279734   7.715   3.263   7.822
25314SOL     OW79735   7.553   2.875   9.174
25314SOL    HW179736   7.476   2.842   9.228
25314SOL    HW279737   7.638   2.845   9.216
25315SOL     OW79738   8.120   2.065   8.937
25315SOL    HW179739   8.210   2.049   8.897
25315SOL    HW279740   8.128   2.070   9.036
25316SOL     OW79741   7.523   2.207   7.481
25316SOL    HW179742   7.431   2.179   7.452
25316SOL    HW279743   7.554   2.284   7.425
25317SOL     OW79744   8.888   2.718   8.846
25317SOL    HW179745   8.831   2.770   8.783
25317SOL    HW279746   8.984   2.730   8.822
25318SOL     OW79747   7.520   2.028   7.766
25318SOL    HW179748   7.503   2.111   7.712
25318SOL    HW279749   7.610   1.991   7.744
25319SOL     OW79750   8.631   3.197   7.567
25319SOL    HW179751   8.532   3.186   7.569
25319SOL    HW279752   8.665   3.212   7.660
25320SOL     OW79753   8.061   2.704   8.879
25320SOL    HW179754   8.117   2.785   8.862
25320SOL    HW279755   8.120   2.624   8.882
25321SOL     OW79756   8.941   3.629   8.407
25321SOL    HW179757   8.974   3.693   8.338
25321SOL    HW279758   9.007   3.623   8.482
25322SOL     OW79759   8.164   2.427   9.156
25322SOL    HW179760   8.183   2.492   9.230
25322SOL    HW279761   8.224   2.347   9.165
25323SOL     OW79762   8.898   3.082   9.081
25323SOL    HW179763   8.889   3.072   9.180
25323SOL    HW279764   8.994   3.075   9.055
25324SOL     OW79765   7.838   3.603   9.008
25324SOL    HW179766   7.747   3.644   9.006
25324SOL    HW279767   7.831   3.509   9.040
25325SOL     OW79768   9.122   2.745   8.702
25325SOL    HW179769   9.095   2.656   8.665
25325SOL    HW279770   9.123   2.813   8.629
25326SOL     OW79771   8.673   2.187   7.897
25326SOL    HW179772   8.738   2.113   7.886
25326SOL    HW279773   8.693   2.237   7.981
25327SOL     OW79774   8.042   2.607   8.100
25327SOL    HW179775   8.092   2.692   8.081
25327SOL    HW279776   7.954   2.609   8.052
25328SOL     OW79777   9.225   2.204   9.090
25328SOL    HW179778   9.208   2.235   8.996
25328SOL    HW279779   9.141   2.167   9.128
25329SOL     OW79780   9.178   2.796   8.965
25329SOL    HW179781   9.216   2.887   8.980
25329SOL    HW279782   9.170   2.779   8.866
25330SOL     OW79783   8.307   3.236   7.464
25330SOL    HW179784   8.261   3.251   7.552
25330SOL    HW279785   8.351   3.321   7.434
25331SOL     OW79786   8.109   3.652   8.401
25331SOL    HW179787   8.063   3.740   8.388
25331SOL    HW279788   8.208   3.664   8.394
25332SOL     OW79789   8.307   2.818   8.309
25332SOL    HW179790   8.361   2.749   8.357
25332SOL    HW279791   8.275   2.887   8.375
25333SOL     OW79792   8.531   2.846   7.535
25333SOL    HW179793   8.508   2.899   7.453
25333SOL    HW279794   8.612   2.790   7.516
25334SOL     OW79795   9.309   3.431   8.299
25334SOL    HW179796   9.238   3.419   8.229
25334SOL    HW279797   9.310   3.352   8.359
25335SOL     OW79798   7.669   3.176   9.292
25335SOL    HW179799   7.604   3.103   9.271
25335SOL    HW279800   7.673   3.190   9.390
25336SOL     OW79801   7.527   3.102   8.101
25336SOL    HW179802   7.526   3.055   8.189
25336SOL    HW279803   7.609   3.074   8.050
25337SOL     OW79804   8.120   3.253   9.072
25337SOL    HW179805   8.042   3.203   9.110
25337SOL    HW279806   8.117   3.348   9.103
25338SOL     OW79807   9.272   2.054   8.675
25338SOL    HW179808   9.268   1.964   8.719
25338SOL    HW279809   9.275   2.043   8.576
25339SOL     OW79810   7.876   2.286   7.968
25339SOL    HW179811   7.906   2.214   7.906
25339SOL    HW279812   7.837   2.246   8.051
25340SOL     OW79813   9.153   3.349   8.552
25340SOL    HW179814   9.060   3.324   8.525
25340SOL    HW279815   9.179   3.299   8.634
25341SOL     OW79816   7.765   2.409   8.728
25341SOL    HW179817   7.803   2.350   8.800
25341SOL    HW279818   7.805   2.383   8.640
25342SOL     OW79819   8.260   3.448   8.135
25342SOL    HW179820   8.292   3.458   8.041
25342SOL    HW279821   8.181   3.386   8.137
25343SOL     OW79822   8.218   3.192   7.749
25343SOL    HW179823   8.172   3.105   7.766
25343SOL    HW279824   8.309   3.189   7.790
25344SOL     OW79825   8.066   3.429   8.732
25344SOL    HW179826   8.061   3.511   8.789
25344SOL    HW279827   8.155   3.426   8.687
25345SOL     OW79828   8.800   1.914   7.616
25345SOL    HW179829   8.835   1.873   7.532
25345SOL    HW279830   8.710   1.876   7.636
25346SOL     OW79831   8.748   2.315   8.139
25346SOL    HW179832   8.689   2.395   8.143
25346SOL    HW279833   8.763   2.280   8.232
25347SOL     OW79834   9.041   2.083   8.330
25347SOL    HW179835   8.957   2.082   8.384
25347SOL    HW279836   9.043   2.166   8.274
25348SOL     OW79837   7.487   2.939   7.748
25348SOL    HW179838   7.586   2.928   7.739
25348SOL    HW279839   7.447   2.853   7.780
25349SOL     OW79840   8.323   3.508   7.785
25349SOL    HW179841   8.246   3.473   7.731
25349SOL    HW279842   8.291   3.579   7.847
25350SOL     OW79843   7.678   2.490   9.423
25350SOL    HW179844   7.585   2.488   9.460
25350SOL    HW279845   7.679   2.451   9.331
25351SOL     OW79846   9.203   2.469   9.541
25351SOL    HW179847   9.191   2.456   9.442
25351SOL    HW279848   9.173   2.388   9.590
25352SOL     OW79849   7.679   3.575   9.793
25352SOL    HW179850   7.713   3.652   9.847
25352SOL    HW279851   7.723   3.575   9.703
25353SOL     OW79852   7.678   3.296   9.848
25353SOL    HW179853   7.652   3.392   9.848
25353SOL    HW279854   7.607   3.242   9.893
25354SOL     OW79855   8.054   2.826   9.433
25354SOL    HW179856   8.061   2.910   9.379
25354SOL    HW279857   8.100   2.839   9.521
25355SOL     OW79858   7.570   2.505   9.873
25355SOL    HW179859   7.525   2.417   9.890
25355SOL    HW279860   7.569   2.559   9.957
25356SOL     OW79861   9.290   3.629   9.669
25356SOL    HW179862   9.344   3.600   9.749
25356SOL    HW279863   9.320   3.719   9.640
25357SOL     OW79864   7.475   3.458   9.427
25357SOL    HW179865   7.456   3.362   9.448
25357SOL    HW279866   7.442   3.516   9.502
25358SOL     OW79867   9.137   2.784   9.922
25358SOL    HW179868   9.232   2.755   9.930
25358SOL    HW279869   9.129   2.849   9.847
25359SOL     OW79870   9.089   2.970   9.742
25359SOL    HW179871   9.175   2.972   9.690
25359SOL    HW279872   9.103   3.017   9.830
25360SOL     OW79873   8.061   3.227  10.036
25360SOL    HW179874   8.012   3.140  10.045
25360SOL    HW279875   8.038   3.270   9.949
25361SOL     OW79876   8.257   1.866   9.812
25361SOL    HW179877   8.297   1.957   9.803
25361SOL    HW279878   8.157   1.874   9.818
25362SOL     OW79879   8.973   2.861   9.500
25362SOL    HW179880   8.910   2.785   9.513
25362SOL    HW279881   9.021   2.879   9.586
25363SOL     OW79882   8.046   2.591   9.580
25363SOL    HW179883   8.070   2.660   9.512
25363SOL    HW279884   7.968   2.624   9.634
25364SOL     OW79885   8.489   2.563   9.739
25364SOL    HW179886   8.515   2.559   9.835
25364SOL    HW279887   8.404   2.512   9.725
25365SOL     OW79888   7.524   2.673  10.099
25365SOL    HW179889   7.623   2.661  10.108
25365SOL    HW279890   7.500   2.768  10.120
25366SOL     OW79891   8.313   2.210   9.505
25366SOL    HW179892   8.372   2.273   9.456
25366SOL    HW279893   8.332   2.116   9.476
25367SOL     OW79894   8.456   3.318   9.787
25367SOL    HW179895   8.410   3.390   9.735
25367SOL    HW279896   8.452   3.338   9.885
25368SOL     OW79897   7.769   2.805   9.552
25368SOL    HW179898   7.851   2.844   9.510
25368SOL    HW279899   7.742   2.723   9.503
25369SOL     OW79900   8.559   3.638   9.547
25369SOL    HW179901   8.499   3.576   9.597
25369SOL    HW279902   8.590   3.594   9.462
25370SOL     OW79903   9.080   3.239   9.391
25370SOL    HW179904   9.048   3.333   9.381
25370SOL    HW279905   9.004   3.176   9.379
25371SOL     OW79906   7.912   3.605   9.633
25371SOL    HW179907   7.945   3.644   9.719
25371SOL    HW279908   7.988   3.598   9.568
25372SOL     OW79909   8.848   1.969   9.736
25372SOL    HW179910   8.824   1.932   9.646
25372SOL    HW279911   8.947   1.985   9.740
25373SOL     OW79912   8.062   1.984   9.427
25373SOL    HW179913   8.160   1.962   9.434
25373SOL    HW279914   8.031   1.967   9.334
25374SOL     OW79915   7.987   1.926   9.822
25374SOL    HW179916   7.906   1.927   9.880
25374SOL    HW279917   7.990   2.009   9.767
25375SOL     OW79918   8.882   3.050   9.351
25375SOL    HW179919   8.914   2.974   9.408
25375SOL    HW279920   8.790   3.077   9.381
25376SOL     OW79921   7.745   1.897   9.481
25376SOL    HW179922   7.794   1.981   9.460
25376SOL    HW279923   7.807   1.832   9.526
25377SOL     OW79924   8.383   2.098   9.790
25377SOL    HW179925   8.335   2.139   9.712
25377SOL    HW279926   8.482   2.096   9.771
25378SOL     OW79927   8.480   2.411   9.326
25378SOL    HW179928   8.439   2.493   9.287
25378SOL    HW279929   8.544   2.437   9.399
25379SOL     OW79930   8.314   2.316   9.952
25379SOL    HW179931   8.282   2.388   9.890
25379SOL    HW279932   8.338   2.235   9.899
25380SOL     OW79933   9.305   2.695   9.687
25380SOL    HW179934   9.347   2.631   9.751
25380SOL    HW279935   9.267   2.644   9.609
25381SOL     OW79936   7.936   3.247   9.484
25381SOL    HW179937   7.849   3.232   9.531
25381SOL    HW279938   7.919   3.273   9.389
25382SOL     OW79939   8.838   2.437   9.388
25382SOL    HW179940   8.784   2.416   9.469
25382SOL    HW279941   8.929   2.396   9.397
25383SOL     OW79942   7.975   2.118   9.638
25383SOL    HW179943   8.002   2.059   9.563
25383SOL    HW279944   7.975   2.213   9.607
25384SOL     OW79945   8.153   2.912   9.678
25384SOL    HW179946   8.139   2.919   9.777
25384SOL    HW279947   8.237   2.861   9.660
25385SOL     OW79948   7.815   2.962   9.811
25385SOL    HW179949   7.808   3.045   9.755
25385SOL    HW279950   7.819   2.882   9.751
25386SOL     OW79951   9.030   2.501   9.782
25386SOL    HW179952   8.999   2.562   9.855
25386SOL    HW279953   9.080   2.553   9.713
25387SOL     OW79954   8.657   2.387   9.585
25387SOL    HW179955   8.670   2.303   9.639
25387SOL    HW279956   8.628   2.461   9.645
25388SOL     OW79957   7.755   1.925   9.928
25388SOL    HW179958   7.744   2.019   9.961
25388SOL    HW279959   7.750   1.862  10.005
25389SOL     OW79960   9.070   2.229   9.684
25389SOL    HW179961   9.072   2.153   9.748
25389SOL    HW279962   9.022   2.306   9.724
25390SOL     OW79963   8.988   2.136   9.435
25390SOL    HW179964   8.927   2.061   9.458
25390SOL    HW279965   9.010   2.188   9.518
25391SOL     OW79966   8.751   2.700   9.352
25391SOL    HW179967   8.785   2.607   9.367
25391SOL    HW279968   8.769   2.727   9.257
25392SOL     OW79969   7.456   3.188   9.510
25392SOL    HW179970   7.363   3.209   9.479
25392SOL    HW279971   7.466   3.089   9.523
25393SOL     OW79972   8.263   2.434   9.635
25393SOL    HW179973   8.270   2.345   9.589
25393SOL    HW279974   8.169   2.468   9.627
25394SOL     OW79975   7.921   2.362   9.501
25394SOL    HW179976   7.982   2.442   9.505
25394SOL    HW279977   7.826   2.393   9.508
25395SOL     OW79978   8.750   2.717   9.619
25395SOL    HW179979   8.664   2.686   9.661
25395SOL    HW279980   8.746   2.703   9.520
25396SOL     OW79981   9.174   1.997   9.833
25396SOL    HW179982   9.247   1.980   9.766
25396SOL    HW279983   9.143   1.910   9.871
25397SOL     OW79984   8.120   3.478   9.464
25397SOL    HW179985   8.129   3.488   9.365
25397SOL    HW279986   8.080   3.389   9.485
25398SOL     OW79987   8.642   3.474   9.341
25398SOL    HW179988   8.648   3.381   9.378
25398SOL    HW279989   8.583   3.474   9.261
25399SOL     OW79990   8.952   3.469   9.354
25399SOL    HW179991   8.860   3.506   9.361
25399SOL    HW279992   8.990   3.489   9.264
25400SOL     OW79993   8.038   3.349   9.801
25400SOL    HW179994   8.080   3.291   9.731
25400SOL    HW279995   7.994   3.428   9.757
25401SOL     OW79996   7.703   3.210   9.600
25401SOL    HW179997   7.607   3.211   9.573
25401SOL    HW279998   7.715   3.263   9.684
25402SOL     OW79999   7.523   2.207   9.343
25402SOL    HW180000   7.431   2.179   9.314
25402SOL    HW280001   7.554   2.284   9.287
25403SOL     OW80002   7.520   2.028   9.628
25403SOL    HW180003   7.503   2.111   9.574
25403SOL    HW280004   7.610   1.991   9.606
25404SOL     OW80005   8.631   3.197   9.429
25404SOL    HW180006   8.532   3.186   9.431
25404SOL    HW280007   8.665   3.212   9.522
25405SOL     OW80008   8.673   2.187   9.759
25405SOL    HW180009   8.738   2.113   9.748
25405SOL    HW280010   8.693   2.237   9.843
25406SOL     OW80011   8.307   3.236   9.326
25406SOL    HW180012   8.261   3.251   9.414
25406SOL    HW280013   8.351   3.321   9.296
25407SOL     OW80014   7.527   3.102   9.963
25407SOL    HW180015   7.526   3.055  10.051
25407SOL    HW280016   7.609   3.074   9.912
25408SOL     OW80017   7.876   2.286   9.830
25408SOL    HW180018   7.906   2.214   9.768
25408SOL    HW280019   7.837   2.246   9.913
25409SOL     OW80020   8.218   3.192   9.611
25409SOL    HW180021   8.172   3.105   9.628
25409SOL    HW280022   8.309   3.189   9.652
25410SOL     OW80023   8.800   1.914   9.478
25410SOL    HW180024   8.835   1.873   9.394
25410SOL    HW280025   8.710   1.876   9.498
25411SOL     OW80026   7.487   2.939   9.610
25411SOL    HW180027   7.586   2.928   9.601
25411SOL    HW280028   7.447   2.853   9.642
25412SOL     OW80029   8.323   3.508   9.647
25412SOL    HW180030   8.246   3.473   9.593
25412SOL    HW280031   8.291   3.579   9.709
25413SOL     OW80032   7.678   4.352   0.113
25413SOL    HW180033   7.585   4.350   0.150
25413SOL    HW280034   7.679   4.313   0.021
25414SOL     OW80035   7.673   3.999   0.996
25414SOL    HW180036   7.708   3.982   1.088
25414SOL    HW280037   7.585   3.954   0.984
25415SOL     OW80038   7.467   4.092   0.647
25415SOL    HW180039   7.385   4.135   0.686
25415SOL    HW280040   7.439   4.019   0.584
25416SOL     OW80041   8.017   4.999   1.165
25416SOL    HW180042   7.924   4.992   1.128
25416SOL    HW280043   8.028   5.088   1.209
25417SOL     OW80044   9.003   5.235   0.703
25417SOL    HW180045   8.946   5.219   0.784
25417SOL    HW280046   8.944   5.245   0.623
25418SOL     OW80047   8.583   4.427   0.717
25418SOL    HW180048   8.640   4.505   0.692
25418SOL    HW280049   8.523   4.453   0.793
25419SOL     OW80050   9.203   4.331   0.231
25419SOL    HW180051   9.191   4.318   0.132
25419SOL    HW280052   9.173   4.250   0.280
25420SOL     OW80053   8.216   4.868   1.023
25420SOL    HW180054   8.138   4.885   1.083
25420SOL    HW280055   8.250   4.955   0.987
25421SOL     OW80056   8.298   4.522   1.823
25421SOL    HW180057   8.294   4.598   1.888
25421SOL    HW280058   8.320   4.558   1.732
25422SOL     OW80059   8.133   4.736   0.665
25422SOL    HW180060   8.202   4.720   0.735
25422SOL    HW280061   8.060   4.793   0.703
25423SOL     OW80062   8.134   4.885   1.803
25423SOL    HW180063   8.194   4.964   1.817
25423SOL    HW280064   8.048   4.916   1.762
25424SOL     OW80065   7.783   5.159   1.061
25424SOL    HW180066   7.705   5.128   1.008
25424SOL    HW280067   7.841   5.217   1.004
25425SOL     OW80068   8.908   5.229   1.339
25425SOL    HW180069   8.932   5.323   1.365
25425SOL    HW280070   8.892   5.175   1.421
25426SOL     OW80071   7.886   4.116   1.499
25426SOL    HW180072   7.968   4.060   1.508
25426SOL    HW280073   7.805   4.058   1.503
25427SOL     OW80074   9.051   4.171   0.737
25427SOL    HW180075   8.977   4.217   0.687
25427SOL    HW280076   9.102   4.239   0.790
25428SOL     OW80077   7.679   5.437   0.483
25428SOL    HW180078   7.713   5.514   0.537
25428SOL    HW280079   7.723   5.437   0.393
25429SOL     OW80080   8.575   5.065   1.690
25429SOL    HW180081   8.622   5.065   1.778
25429SOL    HW280082   8.527   4.978   1.679
25430SOL     OW80083   7.678   5.158   0.538
25430SOL    HW180084   7.652   5.254   0.538
25430SOL    HW280085   7.607   5.104   0.583
25431SOL     OW80086   7.688   4.815   0.886
25431SOL    HW180087   7.702   4.731   0.938
25431SOL    HW280088   7.633   4.879   0.941
25432SOL     OW80089   8.068   5.510   1.439
25432SOL    HW180090   7.976   5.493   1.474
25432SOL    HW280091   8.096   5.602   1.465
25433SOL     OW80092   8.054   4.688   0.123
25433SOL    HW180093   8.061   4.772   0.069
25433SOL    HW280094   8.100   4.701   0.211
25434SOL     OW80095   9.042   3.838   1.480
25434SOL    HW180096   9.024   3.905   1.408
25434SOL    HW280097   9.039   3.884   1.569
25435SOL     OW80098   7.570   4.367   0.563
25435SOL    HW180099   7.525   4.279   0.580
25435SOL    HW280100   7.569   4.421   0.647
25436SOL     OW80101   9.290   5.491   0.359
25436SOL    HW180102   9.344   5.462   0.439
25436SOL    HW280103   9.320   5.581   0.330
25437SOL     OW80104   7.475   5.320   0.117
25437SOL    HW180105   7.456   5.224   0.138
25437SOL    HW280106   7.442   5.378   0.192
25438SOL     OW80107   9.137   4.646   0.612
25438SOL    HW180108   9.232   4.617   0.620
25438SOL    HW280109   9.129   4.711   0.537
25439SOL     OW80110   9.089   4.832   0.432
25439SOL    HW180111   9.175   4.834   0.380
25439SOL    HW280112   9.103   4.879   0.520
25440SOL     OW80113   7.561   4.461   1.597
25440SOL    HW180114   7.649   4.448   1.642
25440SOL    HW280115   7.548   4.558   1.575
25441SOL     OW80116   8.061   5.089   0.726
25441SOL    HW180117   8.012   5.002   0.735
25441SOL    HW280118   8.038   5.132   0.639
25442SOL     OW80119   8.741   4.952   1.423
25442SOL    HW180120   8.778   4.879   1.365
25442SOL    HW280121   8.793   4.957   1.508
25443SOL     OW80122   8.257   3.728   0.502
25443SOL    HW180123   8.297   3.819   0.493
25443SOL    HW280124   8.157   3.736   0.508
25444SOL     OW80125   7.645   4.700   1.264
25444SOL    HW180126   7.734   4.655   1.250
25444SOL    HW280127   7.572   4.635   1.245
25445SOL     OW80128   8.973   4.723   0.190
25445SOL    HW180129   8.910   4.647   0.203
25445SOL    HW280130   9.021   4.741   0.276
25446SOL     OW80131   8.635   5.516   1.616
25446SOL    HW180132   8.659   5.576   1.540
25446SOL    HW280133   8.642   5.421   1.586
25447SOL     OW80134   7.765   3.975   1.801
25447SOL    HW180135   7.836   4.046   1.807
25447SOL    HW280136   7.677   4.014   1.829
25448SOL     OW80137   8.914   5.141   0.953
25448SOL    HW180138   8.855   5.147   1.033
25448SOL    HW280139   8.899   5.053   0.907
25449SOL     OW80140   9.115   5.438   0.572
25449SOL    HW180141   9.074   5.415   0.484
25449SOL    HW280142   9.097   5.364   0.637
25450SOL     OW80143   8.046   4.453   0.270
25450SOL    HW180144   8.070   4.522   0.202
25450SOL    HW280145   7.968   4.486   0.324
25451SOL     OW80146   8.729   4.069   0.944
25451SOL    HW180147   8.643   4.019   0.931
25451SOL    HW280148   8.791   4.015   1.000
25452SOL     OW80149   9.024   5.386   0.307
25452SOL    HW180150   9.113   5.432   0.310
25452SOL    HW280151   9.003   5.362   0.212
25453SOL     OW80152   8.255   4.329   1.465
25453SOL    HW180153   8.208   4.326   1.554
25453SOL    HW280154   8.204   4.274   1.399
25454SOL     OW80155   8.421   4.614   1.572
25454SOL    HW180156   8.467   4.530   1.543
25454SOL    HW280157   8.365   4.648   1.497
25455SOL     OW80158   8.439   4.134   1.242
25455SOL    HW180159   8.362   4.168   1.296
25455SOL    HW280160   8.405   4.083   1.163
25456SOL     OW80161   8.489   4.425   0.429
25456SOL    HW180162   8.515   4.421   0.525
25456SOL    HW280163   8.404   4.374   0.415
25457SOL     OW80164   7.524   4.535   0.789
25457SOL    HW180165   7.623   4.523   0.798
25457SOL    HW280166   7.500   4.630   0.810
25458SOL     OW80167   7.578   5.545   1.571
25458SOL    HW180168   7.568   5.530   1.670
25458SOL    HW280169   7.492   5.581   1.535
25459SOL     OW80170   8.313   4.072   0.195
25459SOL    HW180171   8.372   4.135   0.146
25459SOL    HW280172   8.332   3.978   0.166
25460SOL     OW80173   8.810   4.868   0.545
25460SOL    HW180174   8.893   4.839   0.497
25460SOL    HW280175   8.761   4.935   0.489
25461SOL     OW80176   7.998   3.920   0.885
25461SOL    HW180177   7.993   3.915   0.985
25461SOL    HW280178   8.000   4.016   0.856
25462SOL     OW80179   8.456   5.180   0.477
25462SOL    HW180180   8.410   5.252   0.425
25462SOL    HW280181   8.452   5.200   0.575
25463SOL     OW80182   7.799   5.525   0.853
25463SOL    HW180183   7.849   5.439   0.859
25463SOL    HW280184   7.864   5.602   0.850
25464SOL     OW80185   9.243   4.790   0.873
25464SOL    HW180186   9.181   4.775   0.797
25464SOL    HW280187   9.191   4.801   0.958
25465SOL     OW80188   8.675   5.274   1.506
25465SOL    HW180189   8.681   5.197   1.570
25465SOL    HW280190   8.623   5.248   1.426
25466SOL     OW80191   7.769   4.667   0.242
25466SOL    HW180192   7.851   4.706   0.200
25466SOL    HW280193   7.742   4.585   0.193
25467SOL     OW80194   8.906   4.459   0.728
25467SOL    HW180195   8.901   4.394   0.803
25467SOL    HW280196   8.986   4.518   0.741
25468SOL     OW80197   7.909   4.990   1.727
25468SOL    HW180198   7.859   4.991   1.641
25468SOL    HW280199   7.846   4.972   1.803
25469SOL     OW80200   8.559   5.500   0.237
25469SOL    HW180201   8.499   5.438   0.287
25469SOL    HW280202   8.590   5.456   0.152
25470SOL     OW80203   7.650   4.009   1.498
25470SOL    HW180204   7.570   4.069   1.485
25470SOL    HW280205   7.640   3.960   1.584
25471SOL     OW80206   9.080   5.101   0.081
25471SOL    HW180207   9.048   5.195   0.071
25471SOL    HW280208   9.004   5.038   0.069
25472SOL     OW80209   7.912   5.467   0.323
25472SOL    HW180210   7.945   5.506   0.409
25472SOL    HW280211   7.988   5.460   0.258
25473SOL     OW80212   7.697   5.509   1.241
25473SOL    HW180213   7.754   5.444   1.291
25473SOL    HW280214   7.681   5.476   1.148
25474SOL     OW80215   8.388   5.422   0.904
25474SOL    HW180216   8.468   5.365   0.925
25474SOL    HW280217   8.339   5.382   0.827
25475SOL     OW80218   7.830   4.424   0.480
25475SOL    HW180219   7.875   4.334   0.477
25475SOL    HW280220   7.736   4.413   0.513
25476SOL     OW80221   8.062   3.846   0.117
25476SOL    HW180222   8.160   3.824   0.124
25476SOL    HW280223   8.031   3.829   0.024
25477SOL     OW80224   8.229   3.988   1.749
25477SOL    HW180225   8.296   3.927   1.792
25477SOL    HW280226   8.156   4.007   1.814
25478SOL     OW80227   8.336   5.238   1.195
25478SOL    HW180228   8.313   5.213   1.101
25478SOL    HW280229   8.397   5.169   1.234
25479SOL     OW80230   8.251   5.126   0.924
25479SOL    HW180231   8.341   5.140   0.882
25479SOL    HW280232   8.180   5.128   0.853
25480SOL     OW80233   8.370   4.227   0.899
25480SOL    HW180234   8.345   4.218   0.803
25480SOL    HW280235   8.418   4.145   0.930
25481SOL     OW80236   7.987   3.788   0.512
25481SOL    HW180237   7.906   3.789   0.570
25481SOL    HW280238   7.990   3.871   0.457
25482SOL     OW80239   8.882   4.912   0.041
25482SOL    HW180240   8.914   4.836   0.098
25482SOL    HW280241   8.790   4.939   0.071
25483SOL     OW80242   8.524   4.407   1.464
25483SOL    HW180243   8.444   4.346   1.467
25483SOL    HW280244   8.605   4.354   1.440
25484SOL     OW80245   8.675   5.294   0.793
25484SOL    HW180246   8.696   5.368   0.728
25484SOL    HW280247   8.743   5.294   0.866
25485SOL     OW80248   7.907   4.876   0.741
25485SOL    HW180249   7.836   4.849   0.806
25485SOL    HW280250   7.881   4.848   0.648
25486SOL     OW80251   8.719   5.521   0.591
25486SOL    HW180252   8.763   5.585   0.527
25486SOL    HW280253   8.669   5.573   0.661
25487SOL     OW80254   8.480   4.273   0.016
25487SOL    HW180255   8.439   4.355  -0.023
25487SOL    HW280256   8.544   4.299   0.089
25488SOL     OW80257   7.526   4.280   1.386
25488SOL    HW180258   7.618   4.279   1.345
25488SOL    HW280259   7.520   4.354   1.453
25489SOL     OW80260   8.009   3.946   1.147
25489SOL    HW180261   8.047   3.862   1.184
25489SOL    HW280262   7.921   3.965   1.191
25490SOL     OW80263   8.314   4.178   0.642
25490SOL    HW180264   8.282   4.250   0.580
25490SOL    HW280265   8.338   4.097   0.589
25491SOL     OW80266   8.465   3.763   0.753
25491SOL    HW180267   8.393   3.768   0.684
25491SOL    HW280268   8.441   3.694   0.822
25492SOL     OW80269   8.877   4.897   0.867
25492SOL    HW180270   8.822   4.813   0.860
25492SOL    HW280271   8.903   4.926   0.775
25493SOL     OW80272   8.914   4.314   0.992
25493SOL    HW180273   8.884   4.219   0.999
25493SOL    HW280274   8.987   4.330   1.058
25494SOL     OW80275   9.305   4.557   0.377
25494SOL    HW180276   9.347   4.493   0.441
25494SOL    HW280277   9.267   4.506   0.299
25495SOL     OW80278   7.936   5.109   0.174
25495SOL    HW180279   7.849   5.094   0.221
25495SOL    HW280280   7.919   5.135   0.079
25496SOL     OW80281   9.112   5.004   0.657
25496SOL    HW180282   9.211   5.012   0.671
25496SOL    HW280283   9.067   5.088   0.688
25497SOL     OW80284   8.838   4.299   0.078
25497SOL    HW180285   8.784   4.278   0.159
25497SOL    HW280286   8.929   4.258   0.087
25498SOL     OW80287   7.975   3.980   0.328
25498SOL    HW180288   8.002   3.921   0.253
25498SOL    HW280289   7.975   4.075   0.297
25499SOL     OW80290   8.512   5.071   1.340
25499SOL    HW180291   8.432   5.048   1.395
25499SOL    HW280292   8.595   5.045   1.389
25500SOL     OW80293   8.559   4.919   1.100
25500SOL    HW180294   8.519   4.963   1.181
25500SOL    HW280295   8.518   4.956   1.017
25501SOL     OW80296   9.086   4.823   1.079
25501SOL    HW180297   9.091   4.904   1.138
25501SOL    HW280298   9.000   4.825   1.028
25502SOL     OW80299   8.363   3.813   1.402
25502SOL    HW180300   8.388   3.793   1.307
25502SOL    HW280301   8.435   3.869   1.444
25503SOL     OW80302   8.428   4.840   1.719
25503SOL    HW180303   8.329   4.846   1.729
25503SOL    HW280304   8.451   4.760   1.663
25504SOL     OW80305   8.153   4.774   0.368
25504SOL    HW180306   8.139   4.781   0.467
25504SOL    HW280307   8.237   4.723   0.350
25505SOL     OW80308   7.858   4.537   1.251
25505SOL    HW180309   7.944   4.549   1.301
25505SOL    HW280310   7.816   4.450   1.278
25506SOL     OW80311   8.722   4.110   1.262
25506SOL    HW180312   8.743   4.184   1.326
25506SOL    HW280313   8.633   4.127   1.219
25507SOL     OW80314   7.512   5.288   1.331
25507SOL    HW180315   7.466   5.370   1.297
25507SOL    HW280316   7.610   5.307   1.340
25508SOL     OW80317   7.815   4.824   0.501
25508SOL    HW180318   7.808   4.907   0.445
25508SOL    HW280319   7.819   4.744   0.441
25509SOL     OW80320   8.014   4.261   0.865
25509SOL    HW180321   8.026   4.327   0.791
25509SOL    HW280322   8.060   4.295   0.948
25510SOL     OW80323   8.700   5.072   0.388
25510SOL    HW180324   8.750   5.149   0.428
25510SOL    HW280325   8.605   5.074   0.420
25511SOL     OW80326   8.720   5.169   1.142
25511SOL    HW180327   8.767   5.182   1.229
25511SOL    HW280328   8.654   5.095   1.151
25512SOL     OW80329   9.030   4.363   0.472
25512SOL    HW180330   8.999   4.424   0.545
25512SOL    HW280331   9.080   4.415   0.403
25513SOL     OW80332   7.802   5.234   1.329
25513SOL    HW180333   7.781   5.190   1.242
25513SOL    HW280334   7.899   5.260   1.332
25514SOL     OW80335   7.850   4.475   1.598
25514SOL    HW180336   7.918   4.530   1.551
25514SOL    HW280337   7.890   4.387   1.625
25515SOL     OW80338   8.461   3.829   1.770
25515SOL    HW180339   8.467   3.914   1.718
25515SOL    HW280340   8.493   3.753   1.713
25516SOL     OW80341   8.021   4.594   1.029
25516SOL    HW180342   8.065   4.683   1.020
25516SOL    HW280343   7.958   4.594   1.106
25517SOL     OW80344   8.808   4.586   1.045
25517SOL    HW180345   8.733   4.586   0.979
25517SOL    HW280346   8.845   4.494   1.054
25518SOL     OW80347   8.657   4.249   0.275
25518SOL    HW180348   8.670   4.165   0.329
25518SOL    HW280349   8.628   4.323   0.335
25519SOL     OW80350   7.755   3.937   1.231
25519SOL    HW180351   7.732   3.974   1.321
25519SOL    HW280352   7.725   3.842   1.225
25520SOL     OW80353   7.485   5.034   1.282
25520SOL    HW180354   7.538   4.985   1.350
25520SOL    HW280355   7.507   5.132   1.287
25521SOL     OW80356   8.180   4.358   1.064
25521SOL    HW180357   8.239   4.332   0.988
25521SOL    HW280358   8.152   4.454   1.053
25522SOL     OW80359   7.755   3.787   0.618
25522SOL    HW180360   7.744   3.881   0.651
25522SOL    HW280361   7.750   3.724   0.695
25523SOL     OW80362   9.070   4.091   0.374
25523SOL    HW180363   9.072   4.015   0.438
25523SOL    HW280364   9.022   4.168   0.414
25524SOL     OW80365   8.471   4.490   0.966
25524SOL    HW180366   8.486   4.511   1.062
25524SOL    HW280367   8.441   4.395   0.957
25525SOL     OW80368   8.428   5.297   1.700
25525SOL    HW180369   8.408   5.341   1.612
25525SOL    HW280370   8.467   5.206   1.684
25526SOL     OW80371   9.307   5.242   1.605
25526SOL    HW180372   9.321   5.269   1.510
25526SOL    HW280373   9.390   5.264   1.658
25527SOL     OW80374   7.798   4.622   1.804
25527SOL    HW180375   7.874   4.666   1.852
25527SOL    HW280376   7.833   4.575   1.722
25528SOL     OW80377   8.988   3.998   0.125
25528SOL    HW180378   8.927   3.923   0.148
25528SOL    HW280379   9.010   4.050   0.208
25529SOL     OW80380   8.751   4.562   0.042
25529SOL    HW180381   8.785   4.469   0.057
25529SOL    HW280382   8.769   4.589  -0.053
25530SOL     OW80383   8.516   5.057   0.849
25530SOL    HW180384   8.523   4.973   0.794
25530SOL    HW280385   8.578   5.126   0.813
25531SOL     OW80386   7.767   4.534   0.949
25531SOL    HW180387   7.860   4.570   0.954
25531SOL    HW280388   7.761   4.449   1.001
25532SOL     OW80389   7.787   4.233   1.006
25532SOL    HW180390   7.735   4.150   0.989
25532SOL    HW280391   7.864   4.238   0.942
25533SOL     OW80392   8.608   3.931   1.477
25533SOL    HW180393   8.608   3.995   1.554
25533SOL    HW280394   8.636   3.979   1.394
25534SOL     OW80395   7.456   5.050   0.200
25534SOL    HW180396   7.363   5.071   0.169
25534SOL    HW280397   7.466   4.951   0.213
25535SOL     OW80398   7.536   5.525   0.927
25535SOL    HW180399   7.494   5.439   0.900
25535SOL    HW280400   7.630   5.528   0.893
25536SOL     OW80401   7.952   5.292   0.910
25536SOL    HW180402   8.018   5.366   0.919
25536SOL    HW280403   7.996   5.213   0.868
25537SOL     OW80404   8.450   4.520   1.238
25537SOL    HW180405   8.491   4.488   1.324
25537SOL    HW280406   8.354   4.493   1.235
25538SOL     OW80407   7.488   4.268   1.114
25538SOL    HW180408   7.573   4.235   1.073
25538SOL    HW280409   7.501   4.283   1.212
25539SOL     OW80410   7.637   4.244   1.722
25539SOL    HW180411   7.696   4.204   1.652
25539SOL    HW280412   7.579   4.315   1.681
25540SOL     OW80413   8.817   4.674   1.660
25540SOL    HW180414   8.856   4.763   1.680
25540SOL    HW280415   8.827   4.654   1.563
25541SOL     OW80416   8.263   4.296   0.325
25541SOL    HW180417   8.270   4.207   0.279
25541SOL    HW280418   8.169   4.330   0.317
25542SOL     OW80419   9.105   4.328   1.206
25542SOL    HW180420   9.067   4.259   1.268
25542SOL    HW280421   9.187   4.292   1.162
25543SOL     OW80422   8.119   4.188   1.269
25543SOL    HW180423   8.085   4.099   1.239
25543SOL    HW280424   8.145   4.242   1.189
25544SOL     OW80425   8.378   5.402   1.465
25544SOL    HW180426   8.354   5.384   1.370
25544SOL    HW280427   8.408   5.496   1.475
25545SOL     OW80428   7.921   4.224   0.191
25545SOL    HW180429   7.982   4.304   0.195
25545SOL    HW280430   7.826   4.255   0.198
25546SOL     OW80431   7.607   4.861   1.466
25546SOL    HW180432   7.629   4.800   1.542
25546SOL    HW280433   7.617   4.812   1.380
25547SOL     OW80434   8.795   4.783   1.234
25547SOL    HW180435   8.819   4.720   1.160
25547SOL    HW280436   8.705   4.823   1.216
25548SOL     OW80437   8.750   4.579   0.309
25548SOL    HW180438   8.664   4.548   0.351
25548SOL    HW280439   8.746   4.565   0.210
25549SOL     OW80440   9.207   5.471   1.154
25549SOL    HW180441   9.268   5.501   1.081
25549SOL    HW280442   9.169   5.382   1.132
25550SOL     OW80443   8.700   5.455   1.128
25550SOL    HW180444   8.784   5.460   1.074
25550SOL    HW280445   8.677   5.359   1.146
25551SOL     OW80446   7.531   4.982   1.022
25551SOL    HW180447   7.526   4.981   1.122
25551SOL    HW280448   7.448   4.941   0.984
25552SOL     OW80449   8.351   3.810   0.133
25552SOL    HW180450   8.402   3.811   0.047
25552SOL    HW280451   8.407   3.768   0.204
25553SOL     OW80452   9.174   3.859   0.523
25553SOL    HW180453   9.247   3.842   0.456
25553SOL    HW280454   9.143   3.772   0.561
25554SOL     OW80455   8.836   5.297   0.477
25554SOL    HW180456   8.903   5.309   0.403
25554SOL    HW280457   8.796   5.386   0.500
25555SOL     OW80458   7.578   5.518   1.851
25555SOL    HW180459   7.537   5.444   1.904
25555SOL    HW280460   7.642   5.569   1.909
25556SOL     OW80461   8.728   4.651   0.672
25556SOL    HW180462   8.788   4.570   0.674
25556SOL    HW280463   8.768   4.720   0.612
25557SOL     OW80464   8.278   4.997   1.422
25557SOL    HW180465   8.273   5.030   1.517
25557SOL    HW280466   8.192   5.016   1.376
25558SOL     OW80467   8.120   5.340   0.154
25558SOL    HW180468   8.129   5.350   0.055
25558SOL    HW280469   8.080   5.251   0.175
25559SOL     OW80470   7.711   4.050   0.720
25559SOL    HW180471   7.632   4.101   0.686
25559SOL    HW280472   7.702   4.035   0.818
25560SOL     OW80473   8.642   5.336   0.031
25560SOL    HW180474   8.648   5.243   0.068
25560SOL    HW280475   8.583   5.336  -0.049
25561SOL     OW80476   8.270   4.726   1.372
25561SOL    HW180477   8.310   4.725   1.280
25561SOL    HW280478   8.280   4.818   1.412
25562SOL     OW80479   8.364   4.634   0.291
25562SOL    HW180480   8.427   4.672   0.223
25562SOL    HW280481   8.404   4.551   0.330
25563SOL     OW80482   8.952   5.331   0.044
25563SOL    HW180483   8.860   5.368   0.051
25563SOL    HW280484   8.990   5.351  -0.046
25564SOL     OW80485   7.820   5.012   1.490
25564SOL    HW180486   7.807   5.105   1.456
25564SOL    HW280487   7.736   4.960   1.477
25565SOL     OW80488   8.487   4.822   0.696
25565SOL    HW180489   8.417   4.775   0.750
25565SOL    HW280490   8.546   4.754   0.653
25566SOL     OW80491   8.462   3.960   0.971
25566SOL    HW180492   8.454   3.924   0.878
25566SOL    HW280493   8.460   3.884   1.036
25567SOL     OW80494   8.038   5.211   0.491
25567SOL    HW180495   8.080   5.153   0.421
25567SOL    HW280496   7.994   5.290   0.447
25568SOL     OW80497   9.157   4.109   1.381
25568SOL    HW180498   9.230   4.178   1.385
25568SOL    HW280499   9.185   4.034   1.322
25569SOL     OW80500   7.703   5.072   0.290
25569SOL    HW180501   7.607   5.073   0.263
25569SOL    HW280502   7.715   5.125   0.374
25570SOL     OW80503   7.553   4.737   1.726
25570SOL    HW180504   7.476   4.704   1.780
25570SOL    HW280505   7.638   4.707   1.768
25571SOL     OW80506   7.523   4.069   0.033
25571SOL    HW180507   7.431   4.041   0.004
25571SOL    HW280508   7.554   4.146  -0.023
25572SOL     OW80509   8.888   4.580   1.398
25572SOL    HW180510   8.831   4.632   1.335
25572SOL    HW280511   8.984   4.592   1.374
25573SOL     OW80512   7.520   3.890   0.318
25573SOL    HW180513   7.503   3.973   0.264
25573SOL    HW280514   7.610   3.853   0.296
25574SOL     OW80515   8.631   5.059   0.119
25574SOL    HW180516   8.532   5.048   0.121
25574SOL    HW280517   8.665   5.074   0.212
25575SOL     OW80518   8.061   4.566   1.431
25575SOL    HW180519   8.117   4.647   1.414
25575SOL    HW280520   8.120   4.486   1.434
25576SOL     OW80521   8.941   5.491   0.959
25576SOL    HW180522   8.974   5.555   0.890
25576SOL    HW280523   9.007   5.485   1.034
25577SOL     OW80524   8.164   4.289   1.708
25577SOL    HW180525   8.183   4.354   1.782
25577SOL    HW280526   8.224   4.209   1.717
25578SOL     OW80527   8.898   4.944   1.633
25578SOL    HW180528   8.889   4.934   1.732
25578SOL    HW280529   8.994   4.937   1.607
25579SOL     OW80530   9.122   4.607   1.254
25579SOL    HW180531   9.095   4.518   1.217
25579SOL    HW280532   9.123   4.675   1.181
25580SOL     OW80533   8.042   4.469   0.652
25580SOL    HW180534   8.092   4.554   0.633
25580SOL    HW280535   7.954   4.471   0.604
25581SOL     OW80536   9.225   4.066   1.642
25581SOL    HW180537   9.208   4.097   1.548
25581SOL    HW280538   9.141   4.029   1.680
25582SOL     OW80539   8.307   5.098   0.016
25582SOL    HW180540   8.261   5.113   0.104
25582SOL    HW280541   8.351   5.183  -0.014
25583SOL     OW80542   8.109   5.514   0.953
25583SOL    HW180543   8.063   5.602   0.940
25583SOL    HW280544   8.208   5.526   0.946
25584SOL     OW80545   8.307   4.680   0.861
25584SOL    HW180546   8.361   4.611   0.909
25584SOL    HW280547   8.275   4.749   0.927
25585SOL     OW80548   8.531   4.708   0.087
25585SOL    HW180549   8.508   4.761   0.005
25585SOL    HW280550   8.612   4.652   0.068
25586SOL     OW80551   9.309   5.293   0.851
25586SOL    HW180552   9.238   5.281   0.781
25586SOL    HW280553   9.310   5.214   0.911
25587SOL     OW80554   7.669   5.038   1.844
25587SOL    HW180555   7.604   4.965   1.823
25587SOL    HW280556   7.673   5.052   1.942
25588SOL     OW80557   7.527   4.964   0.653
25588SOL    HW180558   7.526   4.917   0.741
25588SOL    HW280559   7.609   4.936   0.602
25589SOL     OW80560   8.120   5.115   1.624
25589SOL    HW180561   8.042   5.065   1.662
25589SOL    HW280562   8.117   5.210   1.655
25590SOL     OW80563   7.876   4.148   0.520
25590SOL    HW180564   7.906   4.076   0.458
25590SOL    HW280565   7.837   4.108   0.603
25591SOL     OW80566   9.153   5.211   1.104
25591SOL    HW180567   9.060   5.186   1.077
25591SOL    HW280568   9.179   5.161   1.186
25592SOL     OW80569   7.765   4.271   1.280
25592SOL    HW180570   7.803   4.212   1.352
25592SOL    HW280571   7.805   4.245   1.192
25593SOL     OW80572   8.260   5.310   0.687
25593SOL    HW180573   8.292   5.320   0.593
25593SOL    HW280574   8.181   5.248   0.689
25594SOL     OW80575   8.449   3.758   1.154
25594SOL    HW180576   8.386   3.686   1.123
25594SOL    HW280577   8.542   3.722   1.154
25595SOL     OW80578   8.218   5.054   0.301
25595SOL    HW180579   8.172   4.967   0.318
25595SOL    HW280580   8.309   5.051   0.342
25596SOL     OW80581   8.066   5.291   1.284
25596SOL    HW180582   8.061   5.373   1.341
25596SOL    HW280583   8.155   5.288   1.239
25597SOL     OW80584   8.748   4.177   0.691
25597SOL    HW180585   8.689   4.257   0.695
25597SOL    HW280586   8.763   4.142   0.784
25598SOL     OW80587   7.487   4.801   0.300
25598SOL    HW180588   7.586   4.790   0.291
25598SOL    HW280589   7.447   4.715   0.332
25599SOL     OW80590   8.323   5.370   0.337
25599SOL    HW180591   8.246   5.335   0.283
25599SOL    HW280592   8.291   5.441   0.399
25600SOL     OW80593   7.678   4.352   1.975
25600SOL    HW180594   7.585   4.350   2.012
25600SOL    HW280595   7.679   4.313   1.883
25601SOL     OW80596   7.673   3.999   2.858
25601SOL    HW180597   7.708   3.982   2.950
25601SOL    HW280598   7.585   3.954   2.846
25602SOL     OW80599   7.467   4.092   2.509
25602SOL    HW180600   7.385   4.135   2.548
25602SOL    HW280601   7.439   4.019   2.446
25603SOL     OW80602   8.017   4.999   3.027
25603SOL    HW180603   7.924   4.992   2.990
25603SOL    HW280604   8.028   5.088   3.071
25604SOL     OW80605   9.003   5.235   2.565
25604SOL    HW180606   8.946   5.219   2.646
25604SOL    HW280607   8.944   5.245   2.485
25605SOL     OW80608   8.583   4.427   2.579
25605SOL    HW180609   8.640   4.505   2.554
25605SOL    HW280610   8.523   4.453   2.655
25606SOL     OW80611   9.203   4.331   2.093
25606SOL    HW180612   9.191   4.318   1.994
25606SOL    HW280613   9.173   4.250   2.142
25607SOL     OW80614   8.216   4.868   2.885
25607SOL    HW180615   8.138   4.885   2.945
25607SOL    HW280616   8.250   4.955   2.849
25608SOL     OW80617   8.298   4.522   3.685
25608SOL    HW180618   8.294   4.598   3.750
25608SOL    HW280619   8.320   4.558   3.594
25609SOL     OW80620   8.133   4.736   2.527
25609SOL    HW180621   8.202   4.720   2.597
25609SOL    HW280622   8.060   4.793   2.565
25610SOL     OW80623   7.783   5.159   2.923
25610SOL    HW180624   7.705   5.128   2.870
25610SOL    HW280625   7.841   5.217   2.866
25611SOL     OW80626   8.908   5.229   3.201
25611SOL    HW180627   8.932   5.323   3.227
25611SOL    HW280628   8.892   5.175   3.283
25612SOL     OW80629   9.051   4.171   2.599
25612SOL    HW180630   8.977   4.217   2.549
25612SOL    HW280631   9.102   4.239   2.652
25613SOL     OW80632   7.679   5.437   2.345
25613SOL    HW180633   7.713   5.514   2.399
25613SOL    HW280634   7.723   5.437   2.255
25614SOL     OW80635   8.575   5.065   3.552
25614SOL    HW180636   8.622   5.065   3.640
25614SOL    HW280637   8.527   4.978   3.541
25615SOL     OW80638   7.678   5.158   2.400
25615SOL    HW180639   7.652   5.254   2.400
25615SOL    HW280640   7.607   5.104   2.445
25616SOL     OW80641   7.688   4.815   2.748
25616SOL    HW180642   7.702   4.731   2.800
25616SOL    HW280643   7.633   4.879   2.803
25617SOL     OW80644   8.068   5.510   3.301
25617SOL    HW180645   7.976   5.493   3.336
25617SOL    HW280646   8.096   5.602   3.327
25618SOL     OW80647   8.054   4.688   1.985
25618SOL    HW180648   8.061   4.772   1.931
25618SOL    HW280649   8.100   4.701   2.073
25619SOL     OW80650   9.042   3.838   3.342
25619SOL    HW180651   9.024   3.905   3.270
25619SOL    HW280652   9.039   3.884   3.431
25620SOL     OW80653   7.570   4.367   2.425
25620SOL    HW180654   7.525   4.279   2.442
25620SOL    HW280655   7.569   4.421   2.509
25621SOL     OW80656   9.290   5.491   2.221
25621SOL    HW180657   9.344   5.462   2.301
25621SOL    HW280658   9.320   5.581   2.192
25622SOL     OW80659   7.475   5.320   1.979
25622SOL    HW180660   7.456   5.224   2.000
25622SOL    HW280661   7.442   5.378   2.054
25623SOL     OW80662   9.137   4.646   2.474
25623SOL    HW180663   9.232   4.617   2.482
25623SOL    HW280664   9.129   4.711   2.399
25624SOL     OW80665   9.089   4.832   2.294
25624SOL    HW180666   9.175   4.834   2.242
25624SOL    HW280667   9.103   4.879   2.382
25625SOL     OW80668   7.561   4.461   3.459
25625SOL    HW180669   7.649   4.448   3.504
25625SOL    HW280670   7.548   4.558   3.437
25626SOL     OW80671   8.061   5.089   2.588
25626SOL    HW180672   8.012   5.002   2.597
25626SOL    HW280673   8.038   5.132   2.501
25627SOL     OW80674   8.741   4.952   3.285
25627SOL    HW180675   8.778   4.879   3.227
25627SOL    HW280676   8.793   4.957   3.370
25628SOL     OW80677   8.257   3.728   2.364
25628SOL    HW180678   8.297   3.819   2.355
25628SOL    HW280679   8.157   3.736   2.370
25629SOL     OW80680   7.645   4.700   3.126
25629SOL    HW180681   7.734   4.655   3.112
25629SOL    HW280682   7.572   4.635   3.107
25630SOL     OW80683   8.973   4.723   2.052
25630SOL    HW180684   8.910   4.647   2.065
25630SOL    HW280685   9.021   4.741   2.138
25631SOL     OW80686   8.635   5.516   3.478
25631SOL    HW180687   8.659   5.576   3.402
25631SOL    HW280688   8.642   5.421   3.448
25632SOL     OW80689   7.765   3.975   3.663
25632SOL    HW180690   7.836   4.046   3.669
25632SOL    HW280691   7.677   4.014   3.691
25633SOL     OW80692   8.914   5.141   2.815
25633SOL    HW180693   8.855   5.147   2.895
25633SOL    HW280694   8.899   5.053   2.769
25634SOL     OW80695   9.115   5.438   2.434
25634SOL    HW180696   9.074   5.415   2.346
25634SOL    HW280697   9.097   5.364   2.499
25635SOL     OW80698   8.046   4.453   2.132
25635SOL    HW180699   8.070   4.522   2.064
25635SOL    HW280700   7.968   4.486   2.186
25636SOL     OW80701   8.729   4.069   2.806
25636SOL    HW180702   8.643   4.019   2.793
25636SOL    HW280703   8.791   4.015   2.862
25637SOL     OW80704   9.024   5.386   2.169
25637SOL    HW180705   9.113   5.432   2.172
25637SOL    HW280706   9.003   5.362   2.074
25638SOL     OW80707   8.255   4.329   3.327
25638SOL    HW180708   8.208   4.326   3.416
25638SOL    HW280709   8.204   4.274   3.261
25639SOL     OW80710   8.842   4.193   3.536
25639SOL    HW180711   8.822   4.236   3.624
25639SOL    HW280712   8.920   4.131   3.545
25640SOL     OW80713   8.421   4.614   3.434
25640SOL    HW180714   8.467   4.530   3.405
25640SOL    HW280715   8.365   4.648   3.359
25641SOL     OW80716   8.489   4.425   2.291
25641SOL    HW180717   8.515   4.421   2.387
25641SOL    HW280718   8.404   4.374   2.277
25642SOL     OW80719   7.524   4.535   2.651
25642SOL    HW180720   7.623   4.523   2.660
25642SOL    HW280721   7.500   4.630   2.672
25643SOL     OW80722   7.578   5.545   3.433
25643SOL    HW180723   7.568   5.530   3.532
25643SOL    HW280724   7.492   5.581   3.397
25644SOL     OW80725   8.313   4.072   2.057
25644SOL    HW180726   8.372   4.135   2.008
25644SOL    HW280727   8.332   3.978   2.028
25645SOL     OW80728   9.167   4.309   3.693
25645SOL    HW180729   9.141   4.398   3.657
25645SOL    HW280730   9.165   4.241   3.620
25646SOL     OW80731   8.810   4.868   2.407
25646SOL    HW180732   8.893   4.839   2.359
25646SOL    HW280733   8.761   4.935   2.351
25647SOL     OW80734   8.456   5.180   2.339
25647SOL    HW180735   8.410   5.252   2.287
25647SOL    HW280736   8.452   5.200   2.437
25648SOL     OW80737   9.243   4.790   2.735
25648SOL    HW180738   9.181   4.775   2.659
25648SOL    HW280739   9.191   4.801   2.820
25649SOL     OW80740   8.675   5.274   3.368
25649SOL    HW180741   8.681   5.197   3.432
25649SOL    HW280742   8.623   5.248   3.288
25650SOL     OW80743   7.769   4.667   2.104
25650SOL    HW180744   7.851   4.706   2.062
25650SOL    HW280745   7.742   4.585   2.055
25651SOL     OW80746   8.906   4.459   2.590
25651SOL    HW180747   8.901   4.394   2.665
25651SOL    HW280748   8.986   4.518   2.603
25652SOL     OW80749   8.559   5.500   2.099
25652SOL    HW180750   8.499   5.438   2.149
25652SOL    HW280751   8.590   5.456   2.014
25653SOL     OW80752   7.650   4.009   3.360
25653SOL    HW180753   7.570   4.069   3.347
25653SOL    HW280754   7.640   3.960   3.446
25654SOL     OW80755   9.080   5.101   1.943
25654SOL    HW180756   9.048   5.195   1.933
25654SOL    HW280757   9.004   5.038   1.931
25655SOL     OW80758   8.848   3.831   2.288
25655SOL    HW180759   8.824   3.794   2.198
25655SOL    HW280760   8.947   3.847   2.292
25656SOL     OW80761   7.697   5.509   3.103
25656SOL    HW180762   7.754   5.444   3.153
25656SOL    HW280763   7.681   5.476   3.010
25657SOL     OW80764   8.388   5.422   2.766
25657SOL    HW180765   8.468   5.365   2.787
25657SOL    HW280766   8.339   5.382   2.689
25658SOL     OW80767   7.830   4.424   2.342
25658SOL    HW180768   7.875   4.334   2.339
25658SOL    HW280769   7.736   4.413   2.375
25659SOL     OW80770   8.995   3.946   3.591
25659SOL    HW180771   8.990   3.983   3.683
25659SOL    HW280772   8.923   3.877   3.579
25660SOL     OW80773   8.062   3.846   1.979
25660SOL    HW180774   8.160   3.824   1.986
25660SOL    HW280775   8.031   3.829   1.886
25661SOL     OW80776   8.229   3.988   3.611
25661SOL    HW180777   8.296   3.927   3.654
25661SOL    HW280778   8.156   4.007   3.676
25662SOL     OW80779   8.336   5.238   3.057
25662SOL    HW180780   8.313   5.213   2.963
25662SOL    HW280781   8.397   5.169   3.096
25663SOL     OW80782   8.799   4.314   3.295
25663SOL    HW180783   8.827   4.271   3.380
25663SOL    HW280784   8.824   4.410   3.296
25664SOL     OW80785   8.251   5.126   2.786
25664SOL    HW180786   8.341   5.140   2.744
25664SOL    HW280787   8.180   5.128   2.715
25665SOL     OW80788   8.370   4.227   2.761
25665SOL    HW180789   8.345   4.218   2.665
25665SOL    HW280790   8.418   4.145   2.792
25666SOL     OW80791   7.987   3.788   2.374
25666SOL    HW180792   7.906   3.789   2.432
25666SOL    HW280793   7.990   3.871   2.319
25667SOL     OW80794   8.882   4.912   1.903
25667SOL    HW180795   8.914   4.836   1.960
25667SOL    HW280796   8.790   4.939   1.933
25668SOL     OW80797   7.745   3.759   2.033
25668SOL    HW180798   7.794   3.843   2.012
25668SOL    HW280799   7.807   3.694   2.078
25669SOL     OW80800   8.383   3.960   2.342
25669SOL    HW180801   8.335   4.001   2.264
25669SOL    HW280802   8.482   3.958   2.323
25670SOL     OW80803   8.524   4.407   3.326
25670SOL    HW180804   8.444   4.346   3.329
25670SOL    HW280805   8.605   4.354   3.302
25671SOL     OW80806   8.675   5.294   2.655
25671SOL    HW180807   8.696   5.368   2.590
25671SOL    HW280808   8.743   5.294   2.728
25672SOL     OW80809   7.907   4.876   2.603
25672SOL    HW180810   7.836   4.849   2.668
25672SOL    HW280811   7.881   4.848   2.510
25673SOL     OW80812   8.719   5.521   2.453
25673SOL    HW180813   8.763   5.585   2.389
25673SOL    HW280814   8.669   5.573   2.523
25674SOL     OW80815   8.480   4.273   1.878
25674SOL    HW180816   8.439   4.355   1.839
25674SOL    HW280817   8.544   4.299   1.951
25675SOL     OW80818   7.526   4.280   3.248
25675SOL    HW180819   7.618   4.279   3.207
25675SOL    HW280820   7.520   4.354   3.315
25676SOL     OW80821   8.314   4.178   2.504
25676SOL    HW180822   8.282   4.250   2.442
25676SOL    HW280823   8.338   4.097   2.451
25677SOL     OW80824   8.465   3.763   2.615
25677SOL    HW180825   8.393   3.768   2.546
25677SOL    HW280826   8.441   3.694   2.684
25678SOL     OW80827   8.877   4.897   2.729
25678SOL    HW180828   8.822   4.813   2.722
25678SOL    HW280829   8.903   4.926   2.637
25679SOL     OW80830   8.914   4.314   2.854
25679SOL    HW180831   8.884   4.219   2.861
25679SOL    HW280832   8.987   4.330   2.920
25680SOL     OW80833   9.305   4.557   2.239
25680SOL    HW180834   9.347   4.493   2.303
25680SOL    HW280835   9.267   4.506   2.161
25681SOL     OW80836   7.936   5.109   2.036
25681SOL    HW180837   7.849   5.094   2.083
25681SOL    HW280838   7.919   5.135   1.941
25682SOL     OW80839   9.112   5.004   2.519
25682SOL    HW180840   9.211   5.012   2.533
25682SOL    HW280841   9.067   5.088   2.550
25683SOL     OW80842   7.975   3.980   2.190
25683SOL    HW180843   8.002   3.921   2.115
25683SOL    HW280844   7.975   4.075   2.159
25684SOL     OW80845   9.202   4.947   3.450
25684SOL    HW180846   9.293   4.908   3.437
25684SOL    HW280847   9.210   5.043   3.474
25685SOL     OW80848   8.512   5.071   3.202
25685SOL    HW180849   8.432   5.048   3.257
25685SOL    HW280850   8.595   5.045   3.251
25686SOL     OW80851   8.559   4.919   2.962
25686SOL    HW180852   8.519   4.963   3.043
25686SOL    HW280853   8.518   4.956   2.879
25687SOL     OW80854   9.086   4.823   2.941
25687SOL    HW180855   9.091   4.904   3.000
25687SOL    HW280856   9.000   4.825   2.890
25688SOL     OW80857   8.428   4.840   3.581
25688SOL    HW180858   8.329   4.846   3.591
25688SOL    HW280859   8.451   4.760   3.525
25689SOL     OW80860   8.153   4.774   2.230
25689SOL    HW180861   8.139   4.781   2.329
25689SOL    HW280862   8.237   4.723   2.212
25690SOL     OW80863   7.858   4.537   3.113
25690SOL    HW180864   7.944   4.549   3.163
25690SOL    HW280865   7.816   4.450   3.140
25691SOL     OW80866   8.722   4.110   3.124
25691SOL    HW180867   8.743   4.184   3.188
25691SOL    HW280868   8.633   4.127   3.081
25692SOL     OW80869   7.512   5.288   3.193
25692SOL    HW180870   7.466   5.370   3.159
25692SOL    HW280871   7.610   5.307   3.202
25693SOL     OW80872   7.815   4.824   2.363
25693SOL    HW180873   7.808   4.907   2.307
25693SOL    HW280874   7.819   4.744   2.303
25694SOL     OW80875   8.014   4.261   2.727
25694SOL    HW180876   8.026   4.327   2.653
25694SOL    HW280877   8.060   4.295   2.810
25695SOL     OW80878   8.700   5.072   2.250
25695SOL    HW180879   8.750   5.149   2.290
25695SOL    HW280880   8.605   5.074   2.282
25696SOL     OW80881   8.720   5.169   3.004
25696SOL    HW180882   8.767   5.182   3.091
25696SOL    HW280883   8.654   5.095   3.013
25697SOL     OW80884   9.030   4.363   2.334
25697SOL    HW180885   8.999   4.424   2.407
25697SOL    HW280886   9.080   4.415   2.265
25698SOL     OW80887   7.802   5.234   3.191
25698SOL    HW180888   7.781   5.190   3.104
25698SOL    HW280889   7.899   5.260   3.194
25699SOL     OW80890   7.850   4.475   3.460
25699SOL    HW180891   7.918   4.530   3.413
25699SOL    HW280892   7.890   4.387   3.487
25700SOL     OW80893   9.035   4.503   3.532
25700SOL    HW180894   8.943   4.541   3.527
25700SOL    HW280895   9.095   4.550   3.467
25701SOL     OW80896   8.461   3.829   3.632
25701SOL    HW180897   8.467   3.914   3.580
25701SOL    HW280898   8.493   3.753   3.575
25702SOL     OW80899   7.952   3.774   3.602
25702SOL    HW180900   7.910   3.717   3.532
25702SOL    HW280901   7.886   3.843   3.634
25703SOL     OW80902   8.021   4.594   2.891
25703SOL    HW180903   8.065   4.683   2.882
25703SOL    HW280904   7.958   4.594   2.968
25704SOL     OW80905   8.808   4.586   2.907
25704SOL    HW180906   8.733   4.586   2.841
25704SOL    HW280907   8.845   4.494   2.916
25705SOL     OW80908   8.657   4.249   2.137
25705SOL    HW180909   8.670   4.165   2.191
25705SOL    HW280910   8.628   4.323   2.197
25706SOL     OW80911   7.755   3.937   3.093
25706SOL    HW180912   7.732   3.974   3.183
25706SOL    HW280913   7.725   3.842   3.087
25707SOL     OW80914   7.485   5.034   3.144
25707SOL    HW180915   7.538   4.985   3.212
25707SOL    HW280916   7.507   5.132   3.149
25708SOL     OW80917   8.180   4.358   2.926
25708SOL    HW180918   8.239   4.332   2.850
25708SOL    HW280919   8.152   4.454   2.915
25709SOL     OW80920   9.176   4.659   3.716
25709SOL    HW180921   9.130   4.652   3.627
25709SOL    HW280922   9.114   4.703   3.782
25710SOL     OW80923   7.755   3.787   2.480
25710SOL    HW180924   7.744   3.881   2.513
25710SOL    HW280925   7.750   3.724   2.557
25711SOL     OW80926   9.070   4.091   2.236
25711SOL    HW180927   9.072   4.015   2.300
25711SOL    HW280928   9.022   4.168   2.276
25712SOL     OW80929   8.471   4.490   2.828
25712SOL    HW180930   8.486   4.511   2.924
25712SOL    HW280931   8.441   4.395   2.819
25713SOL     OW80932   8.428   5.297   3.562
25713SOL    HW180933   8.408   5.341   3.474
25713SOL    HW280934   8.467   5.206   3.546
25714SOL     OW80935   9.307   5.242   3.467
25714SOL    HW180936   9.321   5.269   3.372
25714SOL    HW280937   9.390   5.264   3.520
25715SOL     OW80938   7.798   4.622   3.666
25715SOL    HW180939   7.874   4.666   3.714
25715SOL    HW280940   7.833   4.575   3.584
25716SOL     OW80941   8.988   3.998   1.987
25716SOL    HW180942   8.927   3.923   2.010
25716SOL    HW280943   9.010   4.050   2.070
25717SOL     OW80944   8.751   4.562   1.904
25717SOL    HW180945   8.785   4.469   1.919
25717SOL    HW280946   8.769   4.589   1.809
25718SOL     OW80947   8.516   5.057   2.711
25718SOL    HW180948   8.523   4.973   2.656
25718SOL    HW280949   8.578   5.126   2.675
25719SOL     OW80950   7.767   4.534   2.811
25719SOL    HW180951   7.860   4.570   2.816
25719SOL    HW280952   7.761   4.449   2.863
25720SOL     OW80953   7.787   4.233   2.868
25720SOL    HW180954   7.735   4.150   2.851
25720SOL    HW280955   7.864   4.238   2.804
25721SOL     OW80956   8.586   4.104   3.540
25721SOL    HW180957   8.541   4.167   3.604
25721SOL    HW280958   8.679   4.135   3.523
25722SOL     OW80959   8.608   3.931   3.339
25722SOL    HW180960   8.608   3.995   3.416
25722SOL    HW280961   8.636   3.979   3.256
25723SOL     OW80962   7.456   5.050   2.062
25723SOL    HW180963   7.363   5.071   2.031
25723SOL    HW280964   7.466   4.951   2.075
25724SOL     OW80965   7.536   5.525   2.789
25724SOL    HW180966   7.494   5.439   2.762
25724SOL    HW280967   7.630   5.528   2.755
25725SOL     OW80968   8.450   4.520   3.100
25725SOL    HW180969   8.491   4.488   3.186
25725SOL    HW280970   8.354   4.493   3.097
25726SOL     OW80971   7.488   4.268   2.976
25726SOL    HW180972   7.573   4.235   2.935
25726SOL    HW280973   7.501   4.283   3.074
25727SOL     OW80974   7.637   4.244   3.584
25727SOL    HW180975   7.696   4.204   3.514
25727SOL    HW280976   7.579   4.315   3.543
25728SOL     OW80977   8.817   4.674   3.522
25728SOL    HW180978   8.856   4.763   3.542
25728SOL    HW280979   8.827   4.654   3.425
25729SOL     OW80980   8.263   4.296   2.187
25729SOL    HW180981   8.270   4.207   2.141
25729SOL    HW280982   8.169   4.330   2.179
25730SOL     OW80983   9.105   4.328   3.068
25730SOL    HW180984   9.067   4.259   3.130
25730SOL    HW280985   9.187   4.292   3.024
25731SOL     OW80986   7.700   5.288   3.606
25731SOL    HW180987   7.670   5.345   3.682
25731SOL    HW280988   7.693   5.191   3.632
25732SOL     OW80989   8.378   5.402   3.327
25732SOL    HW180990   8.354   5.384   3.232
25732SOL    HW280991   8.408   5.496   3.337
25733SOL     OW80992   7.921   4.224   2.053
25733SOL    HW180993   7.982   4.304   2.057
25733SOL    HW280994   7.826   4.255   2.060
25734SOL     OW80995   7.607   4.861   3.328
25734SOL    HW180996   7.629   4.800   3.404
25734SOL    HW280997   7.617   4.812   3.242
25735SOL     OW80998   8.795   4.783   3.096
25735SOL    HW180999   8.819   4.720   3.022
25735SOL    HW281000   8.705   4.823   3.078
25736SOL     OW81001   8.750   4.579   2.171
25736SOL    HW181002   8.664   4.548   2.213
25736SOL    HW281003   8.746   4.565   2.072
25737SOL     OW81004   9.207   5.471   3.016
25737SOL    HW181005   9.268   5.501   2.943
25737SOL    HW281006   9.169   5.382   2.994
25738SOL     OW81007   8.700   5.455   2.990
25738SOL    HW181008   8.784   5.460   2.936
25738SOL    HW281009   8.677   5.359   3.008
25739SOL     OW81010   7.531   4.982   2.884
25739SOL    HW181011   7.526   4.981   2.984
25739SOL    HW281012   7.448   4.941   2.846
25740SOL     OW81013   8.136   5.386   3.578
25740SOL    HW181014   8.080   5.467   3.587
25740SOL    HW281015   8.188   5.390   3.492
25741SOL     OW81016   9.174   3.859   2.385
25741SOL    HW181017   9.247   3.842   2.318
25741SOL    HW281018   9.143   3.772   2.423
25742SOL     OW81019   8.836   5.297   2.339
25742SOL    HW181020   8.903   5.309   2.265
25742SOL    HW281021   8.796   5.386   2.362
25743SOL     OW81022   7.578   5.518   3.713
25743SOL    HW181023   7.537   5.444   3.766
25743SOL    HW281024   7.642   5.569   3.771
25744SOL     OW81025   8.728   4.651   2.534
25744SOL    HW181026   8.788   4.570   2.536
25744SOL    HW281027   8.768   4.720   2.474
25745SOL     OW81028   8.278   4.997   3.284
25745SOL    HW181029   8.273   5.030   3.379
25745SOL    HW281030   8.192   5.016   3.238
25746SOL     OW81031   9.098   5.444   3.256
25746SOL    HW181032   9.151   5.454   3.172
25746SOL    HW281033   9.071   5.534   3.290
25747SOL     OW81034   9.289   3.899   2.825
25747SOL    HW181035   9.328   3.814   2.789
25747SOL    HW281036   9.191   3.901   2.806
25748SOL     OW81037   7.711   4.050   2.582
25748SOL    HW181038   7.632   4.101   2.548
25748SOL    HW281039   7.702   4.035   2.680
25749SOL     OW81040   8.642   5.336   1.893
25749SOL    HW181041   8.648   5.243   1.930
25749SOL    HW281042   8.583   5.336   1.813
25750SOL     OW81043   8.270   4.726   3.234
25750SOL    HW181044   8.310   4.725   3.142
25750SOL    HW281045   8.280   4.818   3.274
25751SOL     OW81046   8.364   4.634   2.153
25751SOL    HW181047   8.427   4.672   2.085
25751SOL    HW281048   8.404   4.551   2.192
25752SOL     OW81049   7.820   5.012   3.352
25752SOL    HW181050   7.807   5.105   3.318
25752SOL    HW281051   7.736   4.960   3.339
25753SOL     OW81052   9.062   5.016   3.151
25753SOL    HW181053   9.122   5.019   3.231
25753SOL    HW281054   8.987   5.080   3.164
25754SOL     OW81055   8.487   4.822   2.558
25754SOL    HW181056   8.417   4.775   2.612
25754SOL    HW281057   8.546   4.754   2.515
25755SOL     OW81058   8.462   3.960   2.833
25755SOL    HW181059   8.454   3.924   2.740
25755SOL    HW281060   8.460   3.884   2.898
25756SOL     OW81061   8.038   5.211   2.353
25756SOL    HW181062   8.080   5.153   2.283
25756SOL    HW281063   7.994   5.290   2.309
25757SOL     OW81064   9.157   4.109   3.243
25757SOL    HW181065   9.230   4.178   3.247
25757SOL    HW281066   9.185   4.034   3.184
25758SOL     OW81067   7.703   5.072   2.152
25758SOL    HW181068   7.607   5.073   2.125
25758SOL    HW281069   7.715   5.125   2.236
25759SOL     OW81070   7.553   4.737   3.588
25759SOL    HW181071   7.476   4.704   3.642
25759SOL    HW281072   7.638   4.707   3.630
25760SOL     OW81073   7.523   4.069   1.895
25760SOL    HW181074   7.431   4.041   1.866
25760SOL    HW281075   7.554   4.146   1.839
25761SOL     OW81076   8.888   4.580   3.260
25761SOL    HW181077   8.831   4.632   3.197
25761SOL    HW281078   8.984   4.592   3.236
25762SOL     OW81079   7.520   3.890   2.180
25762SOL    HW181080   7.503   3.973   2.126
25762SOL    HW281081   7.610   3.853   2.158
25763SOL     OW81082   8.631   5.059   1.981
25763SOL    HW181083   8.532   5.048   1.983
25763SOL    HW281084   8.665   5.074   2.074
25764SOL     OW81085   8.061   4.566   3.293
25764SOL    HW181086   8.117   4.647   3.276
25764SOL    HW281087   8.120   4.486   3.296
25765SOL     OW81088   8.941   5.491   2.821
25765SOL    HW181089   8.974   5.555   2.752
25765SOL    HW281090   9.007   5.485   2.896
25766SOL     OW81091   8.164   4.289   3.570
25766SOL    HW181092   8.183   4.354   3.644
25766SOL    HW281093   8.224   4.209   3.579
25767SOL     OW81094   8.898   4.944   3.495
25767SOL    HW181095   8.889   4.934   3.594
25767SOL    HW281096   8.994   4.937   3.469
25768SOL     OW81097   7.838   5.465   3.422
25768SOL    HW181098   7.747   5.506   3.420
25768SOL    HW281099   7.831   5.371   3.454
25769SOL     OW81100   9.122   4.607   3.116
25769SOL    HW181101   9.095   4.518   3.079
25769SOL    HW281102   9.123   4.675   3.043
25770SOL     OW81103   8.673   4.049   2.311
25770SOL    HW181104   8.738   3.975   2.300
25770SOL    HW281105   8.693   4.099   2.395
25771SOL     OW81106   8.042   4.469   2.514
25771SOL    HW181107   8.092   4.554   2.495
25771SOL    HW281108   7.954   4.471   2.466
25772SOL     OW81109   9.225   4.066   3.504
25772SOL    HW181110   9.208   4.097   3.410
25772SOL    HW281111   9.141   4.029   3.542
25773SOL     OW81112   9.178   4.658   3.379
25773SOL    HW181113   9.216   4.749   3.394
25773SOL    HW281114   9.170   4.641   3.280
25774SOL     OW81115   8.307   5.098   1.878
25774SOL    HW181116   8.261   5.113   1.966
25774SOL    HW281117   8.351   5.183   1.848
25775SOL     OW81118   8.307   4.680   2.723
25775SOL    HW181119   8.361   4.611   2.771
25775SOL    HW281120   8.275   4.749   2.789
25776SOL     OW81121   8.531   4.708   1.949
25776SOL    HW181122   8.508   4.761   1.867
25776SOL    HW281123   8.612   4.652   1.930
25777SOL     OW81124   9.309   5.293   2.713
25777SOL    HW181125   9.238   5.281   2.643
25777SOL    HW281126   9.310   5.214   2.773
25778SOL     OW81127   7.669   5.038   3.706
25778SOL    HW181128   7.604   4.965   3.685
25778SOL    HW281129   7.673   5.052   3.804
25779SOL     OW81130   7.527   4.964   2.515
25779SOL    HW181131   7.526   4.917   2.603
25779SOL    HW281132   7.609   4.936   2.464
25780SOL     OW81133   9.272   3.916   3.089
25780SOL    HW181134   9.268   3.826   3.133
25780SOL    HW281135   9.275   3.905   2.990
25781SOL     OW81136   7.876   4.148   2.382
25781SOL    HW181137   7.906   4.076   2.320
25781SOL    HW281138   7.837   4.108   2.465
25782SOL     OW81139   9.153   5.211   2.966
25782SOL    HW181140   9.060   5.186   2.939
25782SOL    HW281141   9.179   5.161   3.048
25783SOL     OW81142   7.765   4.271   3.142
25783SOL    HW181143   7.803   4.212   3.214
25783SOL    HW281144   7.805   4.245   3.054
25784SOL     OW81145   8.260   5.310   2.549
25784SOL    HW181146   8.292   5.320   2.455
25784SOL    HW281147   8.181   5.248   2.551
25785SOL     OW81148   8.872   3.938   2.974
25785SOL    HW181149   8.924   3.873   3.029
25785SOL    HW281150   8.823   4.001   3.035
25786SOL     OW81151   8.449   3.758   3.016
25786SOL    HW181152   8.386   3.686   2.985
25786SOL    HW281153   8.542   3.722   3.016
25787SOL     OW81154   8.218   5.054   2.163
25787SOL    HW181155   8.172   4.967   2.180
25787SOL    HW281156   8.309   5.051   2.204
25788SOL     OW81157   8.066   5.291   3.146
25788SOL    HW181158   8.061   5.373   3.203
25788SOL    HW281159   8.155   5.288   3.101
25789SOL     OW81160   8.800   3.776   2.030
25789SOL    HW181161   8.835   3.735   1.946
25789SOL    HW281162   8.710   3.738   2.050
25790SOL     OW81163   8.748   4.177   2.553
25790SOL    HW181164   8.689   4.257   2.557
25790SOL    HW281165   8.763   4.142   2.646
25791SOL     OW81166   9.041   3.945   2.744
25791SOL    HW181167   8.957   3.944   2.798
25791SOL    HW281168   9.043   4.028   2.688
25792SOL     OW81169   7.487   4.801   2.162
25792SOL    HW181170   7.586   4.790   2.153
25792SOL    HW281171   7.447   4.715   2.194
25793SOL     OW81172   8.323   5.370   2.199
25793SOL    HW181173   8.246   5.335   2.145
25793SOL    HW281174   8.291   5.441   2.261
25794SOL     OW81175   7.678   4.352   3.837
25794SOL    HW181176   7.585   4.350   3.874
25794SOL    HW281177   7.679   4.313   3.745
25795SOL     OW81178   7.673   3.999   4.720
25795SOL    HW181179   7.708   3.982   4.812
25795SOL    HW281180   7.585   3.954   4.708
25796SOL     OW81181   7.467   4.092   4.371
25796SOL    HW181182   7.385   4.135   4.410
25796SOL    HW281183   7.439   4.019   4.308
25797SOL     OW81184   8.017   4.999   4.889
25797SOL    HW181185   7.924   4.992   4.852
25797SOL    HW281186   8.028   5.088   4.933
25798SOL     OW81187   8.583   4.427   4.441
25798SOL    HW181188   8.640   4.505   4.416
25798SOL    HW281189   8.523   4.453   4.517
25799SOL     OW81190   9.203   4.331   3.955
25799SOL    HW181191   9.191   4.318   3.856
25799SOL    HW281192   9.173   4.250   4.004
25800SOL     OW81193   8.216   4.868   4.747
25800SOL    HW181194   8.138   4.885   4.807
25800SOL    HW281195   8.250   4.955   4.711
25801SOL     OW81196   8.298   4.522   5.547
25801SOL    HW181197   8.294   4.598   5.612
25801SOL    HW281198   8.320   4.558   5.456
25802SOL     OW81199   8.133   4.736   4.389
25802SOL    HW181200   8.202   4.720   4.459
25802SOL    HW281201   8.060   4.793   4.427
25803SOL     OW81202   8.134   4.885   5.527
25803SOL    HW181203   8.194   4.964   5.541
25803SOL    HW281204   8.048   4.916   5.486
25804SOL     OW81205   7.783   5.159   4.785
25804SOL    HW181206   7.705   5.128   4.732
25804SOL    HW281207   7.841   5.217   4.728
25805SOL     OW81208   8.908   5.229   5.063
25805SOL    HW181209   8.932   5.323   5.089
25805SOL    HW281210   8.892   5.175   5.145
25806SOL     OW81211   9.051   4.171   4.461
25806SOL    HW181212   8.977   4.217   4.411
25806SOL    HW281213   9.102   4.239   4.514
25807SOL     OW81214   7.679   5.437   4.207
25807SOL    HW181215   7.713   5.514   4.261
25807SOL    HW281216   7.723   5.437   4.117
25808SOL     OW81217   8.575   5.065   5.414
25808SOL    HW181218   8.622   5.065   5.502
25808SOL    HW281219   8.527   4.978   5.403
25809SOL     OW81220   7.678   5.158   4.262
25809SOL    HW181221   7.652   5.254   4.262
25809SOL    HW281222   7.607   5.104   4.307
25810SOL     OW81223   7.688   4.815   4.610
25810SOL    HW181224   7.702   4.731   4.662
25810SOL    HW281225   7.633   4.879   4.665
25811SOL     OW81226   8.068   5.510   5.163
25811SOL    HW181227   7.976   5.493   5.198
25811SOL    HW281228   8.096   5.602   5.189
25812SOL     OW81229   9.042   3.838   5.204
25812SOL    HW181230   9.024   3.905   5.132
25812SOL    HW281231   9.039   3.884   5.293
25813SOL     OW81232   7.570   4.367   4.287
25813SOL    HW181233   7.525   4.279   4.304
25813SOL    HW281234   7.569   4.421   4.371
25814SOL     OW81235   9.290   5.491   4.083
25814SOL    HW181236   9.344   5.462   4.163
25814SOL    HW281237   9.320   5.581   4.054
25815SOL     OW81238   7.475   5.320   3.841
25815SOL    HW181239   7.456   5.224   3.862
25815SOL    HW281240   7.442   5.378   3.916
25816SOL     OW81241   9.137   4.646   4.336
25816SOL    HW181242   9.232   4.617   4.344
25816SOL    HW281243   9.129   4.711   4.261
25817SOL     OW81244   9.089   4.832   4.156
25817SOL    HW181245   9.175   4.834   4.104
25817SOL    HW281246   9.103   4.879   4.244
25818SOL     OW81247   7.561   4.461   5.321
25818SOL    HW181248   7.649   4.448   5.366
25818SOL    HW281249   7.548   4.558   5.299
25819SOL     OW81250   8.061   5.089   4.450
25819SOL    HW181251   8.012   5.002   4.459
25819SOL    HW281252   8.038   5.132   4.363
25820SOL     OW81253   8.741   4.952   5.147
25820SOL    HW181254   8.778   4.879   5.089
25820SOL    HW281255   8.793   4.957   5.232
25821SOL     OW81256   7.645   4.700   4.988
25821SOL    HW181257   7.734   4.655   4.974
25821SOL    HW281258   7.572   4.635   4.969
25822SOL     OW81259   8.973   4.723   3.914
25822SOL    HW181260   8.910   4.647   3.927
25822SOL    HW281261   9.021   4.741   4.000
25823SOL     OW81262   8.635   5.516   5.340
25823SOL    HW181263   8.659   5.576   5.264
25823SOL    HW281264   8.642   5.421   5.310
25824SOL     OW81265   8.914   5.141   4.677
25824SOL    HW181266   8.855   5.147   4.757
25824SOL    HW281267   8.899   5.053   4.631
25825SOL     OW81268   8.046   4.453   3.994
25825SOL    HW181269   8.070   4.522   3.926
25825SOL    HW281270   7.968   4.486   4.048
25826SOL     OW81271   8.729   4.069   4.668
25826SOL    HW181272   8.643   4.019   4.655
25826SOL    HW281273   8.791   4.015   4.724
25827SOL     OW81274   8.255   4.329   5.189
25827SOL    HW181275   8.208   4.326   5.278
25827SOL    HW281276   8.204   4.274   5.123
25828SOL     OW81277   8.842   4.193   5.398
25828SOL    HW181278   8.822   4.236   5.486
25828SOL    HW281279   8.920   4.131   5.407
25829SOL     OW81280   8.421   4.614   5.296
25829SOL    HW181281   8.467   4.530   5.267
25829SOL    HW281282   8.365   4.648   5.221
25830SOL     OW81283   8.439   4.134   4.966
25830SOL    HW181284   8.362   4.168   5.020
25830SOL    HW281285   8.405   4.083   4.887
25831SOL     OW81286   8.489   4.425   4.153
25831SOL    HW181287   8.515   4.421   4.249
25831SOL    HW281288   8.404   4.374   4.139
25832SOL     OW81289   7.524   4.535   4.513
25832SOL    HW181290   7.623   4.523   4.522
25832SOL    HW281291   7.500   4.630   4.534
25833SOL     OW81292   7.578   5.545   5.295
25833SOL    HW181293   7.568   5.530   5.394
25833SOL    HW281294   7.492   5.581   5.259
25834SOL     OW81295   9.167   4.309   5.555
25834SOL    HW181296   9.141   4.398   5.519
25834SOL    HW281297   9.165   4.241   5.482
25835SOL     OW81298   8.810   4.868   4.269
25835SOL    HW181299   8.893   4.839   4.221
25835SOL    HW281300   8.761   4.935   4.213
25836SOL     OW81301   7.998   3.920   4.609
25836SOL    HW181302   7.993   3.915   4.709
25836SOL    HW281303   8.000   4.016   4.580
25837SOL     OW81304   8.456   5.180   4.201
25837SOL    HW181305   8.410   5.252   4.149
25837SOL    HW281306   8.452   5.200   4.299
25838SOL     OW81307   7.799   5.525   4.577
25838SOL    HW181308   7.849   5.439   4.583
25838SOL    HW281309   7.864   5.602   4.574
25839SOL     OW81310   9.243   4.790   4.597
25839SOL    HW181311   9.181   4.775   4.521
25839SOL    HW281312   9.191   4.801   4.682
25840SOL     OW81313   8.675   5.274   5.230
25840SOL    HW181314   8.681   5.197   5.294
25840SOL    HW281315   8.623   5.248   5.150
25841SOL     OW81316   7.769   4.667   3.966
25841SOL    HW181317   7.851   4.706   3.924
25841SOL    HW281318   7.742   4.585   3.917
25842SOL     OW81319   8.906   4.459   4.452
25842SOL    HW181320   8.901   4.394   4.527
25842SOL    HW281321   8.986   4.518   4.465
25843SOL     OW81322   7.909   4.990   5.451
25843SOL    HW181323   7.859   4.991   5.365
25843SOL    HW281324   7.846   4.972   5.527
25844SOL     OW81325   7.650   4.009   5.222
25844SOL    HW181326   7.570   4.069   5.209
25844SOL    HW281327   7.640   3.960   5.308
25845SOL     OW81328   9.080   5.101   3.805
25845SOL    HW181329   9.048   5.195   3.795
25845SOL    HW281330   9.004   5.038   3.793
25846SOL     OW81331   7.912   5.467   4.047
25846SOL    HW181332   7.945   5.506   4.133
25846SOL    HW281333   7.988   5.460   3.982
25847SOL     OW81334   8.848   3.831   4.150
25847SOL    HW181335   8.824   3.794   4.060
25847SOL    HW281336   8.947   3.847   4.154
25848SOL     OW81337   7.697   5.509   4.965
25848SOL    HW181338   7.754   5.444   5.015
25848SOL    HW281339   7.681   5.476   4.872
25849SOL     OW81340   8.388   5.422   4.628
25849SOL    HW181341   8.468   5.365   4.649
25849SOL    HW281342   8.339   5.382   4.551
25850SOL     OW81343   7.830   4.424   4.204
25850SOL    HW181344   7.875   4.334   4.201
25850SOL    HW281345   7.736   4.413   4.237
25851SOL     OW81346   8.995   3.946   5.453
25851SOL    HW181347   8.990   3.983   5.545
25851SOL    HW281348   8.923   3.877   5.441
25852SOL     OW81349   8.062   3.846   3.841
25852SOL    HW181350   8.160   3.824   3.848
25852SOL    HW281351   8.031   3.829   3.748
25853SOL     OW81352   8.336   5.238   4.919
25853SOL    HW181353   8.313   5.213   4.825
25853SOL    HW281354   8.397   5.169   4.958
25854SOL     OW81355   8.799   4.314   5.157
25854SOL    HW181356   8.827   4.271   5.242
25854SOL    HW281357   8.824   4.410   5.158
25855SOL     OW81358   8.251   5.126   4.648
25855SOL    HW181359   8.341   5.140   4.606
25855SOL    HW281360   8.180   5.128   4.577
25856SOL     OW81361   8.370   4.227   4.623
25856SOL    HW181362   8.345   4.218   4.527
25856SOL    HW281363   8.418   4.145   4.654
25857SOL     OW81364   8.882   4.912   3.765
25857SOL    HW181365   8.914   4.836   3.822
25857SOL    HW281366   8.790   4.939   3.795
25858SOL     OW81367   7.745   3.759   3.895
25858SOL    HW181368   7.794   3.843   3.874
25858SOL    HW281369   7.807   3.694   3.940
25859SOL     OW81370   8.383   3.960   4.204
25859SOL    HW181371   8.335   4.001   4.126
25859SOL    HW281372   8.482   3.958   4.185
25860SOL     OW81373   8.524   4.407   5.188
25860SOL    HW181374   8.444   4.346   5.191
25860SOL    HW281375   8.605   4.354   5.164
25861SOL     OW81376   8.675   5.294   4.517
25861SOL    HW181377   8.696   5.368   4.452
25861SOL    HW281378   8.743   5.294   4.590
25862SOL     OW81379   7.907   4.876   4.465
25862SOL    HW181380   7.836   4.849   4.530
25862SOL    HW281381   7.881   4.848   4.372
25863SOL     OW81382   8.719   5.521   4.315
25863SOL    HW181383   8.763   5.585   4.251
25863SOL    HW281384   8.669   5.573   4.385
25864SOL     OW81385   8.480   4.273   3.740
25864SOL    HW181386   8.439   4.355   3.701
25864SOL    HW281387   8.544   4.299   3.813
25865SOL     OW81388   7.526   4.280   5.110
25865SOL    HW181389   7.618   4.279   5.069
25865SOL    HW281390   7.520   4.354   5.177
25866SOL     OW81391   8.009   3.946   4.871
25866SOL    HW181392   8.047   3.862   4.908
25866SOL    HW281393   7.921   3.965   4.915
25867SOL     OW81394   8.314   4.178   4.366
25867SOL    HW181395   8.282   4.250   4.304
25867SOL    HW281396   8.338   4.097   4.313
25868SOL     OW81397   8.465   3.763   4.477
25868SOL    HW181398   8.393   3.768   4.408
25868SOL    HW281399   8.441   3.694   4.546
25869SOL     OW81400   8.877   4.897   4.591
25869SOL    HW181401   8.822   4.813   4.584
25869SOL    HW281402   8.903   4.926   4.499
25870SOL     OW81403   8.914   4.314   4.716
25870SOL    HW181404   8.884   4.219   4.723
25870SOL    HW281405   8.987   4.330   4.782
25871SOL     OW81406   9.305   4.557   4.101
25871SOL    HW181407   9.347   4.493   4.165
25871SOL    HW281408   9.267   4.506   4.023
25872SOL     OW81409   8.838   4.299   3.802
25872SOL    HW181410   8.784   4.278   3.883
25872SOL    HW281411   8.929   4.258   3.811
25873SOL     OW81412   9.202   4.947   5.312
25873SOL    HW181413   9.293   4.908   5.299
25873SOL    HW281414   9.210   5.043   5.336
25874SOL     OW81415   8.512   5.071   5.064
25874SOL    HW181416   8.432   5.048   5.119
25874SOL    HW281417   8.595   5.045   5.113
25875SOL     OW81418   9.040   5.353   5.349
25875SOL    HW181419   9.067   5.387   5.259
25875SOL    HW281420   9.119   5.315   5.395
25876SOL     OW81421   8.559   4.919   4.824
25876SOL    HW181422   8.519   4.963   4.905
25876SOL    HW281423   8.518   4.956   4.741
25877SOL     OW81424   9.086   4.823   4.803
25877SOL    HW181425   9.091   4.904   4.862
25877SOL    HW281426   9.000   4.825   4.752
25878SOL     OW81427   8.363   3.813   5.126
25878SOL    HW181428   8.388   3.793   5.031
25878SOL    HW281429   8.435   3.869   5.168
25879SOL     OW81430   8.428   4.840   5.443
25879SOL    HW181431   8.329   4.846   5.453
25879SOL    HW281432   8.451   4.760   5.387
25880SOL     OW81433   8.153   4.774   4.092
25880SOL    HW181434   8.139   4.781   4.191
25880SOL    HW281435   8.237   4.723   4.074
25881SOL     OW81436   7.858   4.537   4.975
25881SOL    HW181437   7.944   4.549   5.025
25881SOL    HW281438   7.816   4.450   5.002
25882SOL     OW81439   8.722   4.110   4.986
25882SOL    HW181440   8.743   4.184   5.050
25882SOL    HW281441   8.633   4.127   4.943
25883SOL     OW81442   7.512   5.288   5.055
25883SOL    HW181443   7.466   5.370   5.021
25883SOL    HW281444   7.610   5.307   5.064
25884SOL     OW81445   7.815   4.824   4.225
25884SOL    HW181446   7.808   4.907   4.169
25884SOL    HW281447   7.819   4.744   4.165
25885SOL     OW81448   8.014   4.261   4.589
25885SOL    HW181449   8.026   4.327   4.515
25885SOL    HW281450   8.060   4.295   4.672
25886SOL     OW81451   8.700   5.072   4.112
25886SOL    HW181452   8.750   5.149   4.152
25886SOL    HW281453   8.605   5.074   4.144
25887SOL     OW81454   8.720   5.169   4.866
25887SOL    HW181455   8.767   5.182   4.953
25887SOL    HW281456   8.654   5.095   4.875
25888SOL     OW81457   9.030   4.363   4.196
25888SOL    HW181458   8.999   4.424   4.269
25888SOL    HW281459   9.080   4.415   4.127
25889SOL     OW81460   7.802   5.234   5.053
25889SOL    HW181461   7.781   5.190   4.966
25889SOL    HW281462   7.899   5.260   5.056
25890SOL     OW81463   7.850   4.475   5.322
25890SOL    HW181464   7.918   4.530   5.275
25890SOL    HW281465   7.890   4.387   5.349
25891SOL     OW81466   9.035   4.503   5.394
25891SOL    HW181467   8.943   4.541   5.389
25891SOL    HW281468   9.095   4.550   5.329
25892SOL     OW81469   8.461   3.829   5.494
25892SOL    HW181470   8.467   3.914   5.442
25892SOL    HW281471   8.493   3.753   5.437
25893SOL     OW81472   8.021   4.594   4.753
25893SOL    HW181473   8.065   4.683   4.744
25893SOL    HW281474   7.958   4.594   4.830
25894SOL     OW81475   8.808   4.586   4.769
25894SOL    HW181476   8.733   4.586   4.703
25894SOL    HW281477   8.845   4.494   4.778
25895SOL     OW81478   8.657   4.249   3.999
25895SOL    HW181479   8.670   4.165   4.053
25895SOL    HW281480   8.628   4.323   4.059
25896SOL     OW81481   7.755   3.937   4.955
25896SOL    HW181482   7.732   3.974   5.045
25896SOL    HW281483   7.725   3.842   4.949
25897SOL     OW81484   7.485   5.034   5.006
25897SOL    HW181485   7.538   4.985   5.074
25897SOL    HW281486   7.507   5.132   5.011
25898SOL     OW81487   8.180   4.358   4.788
25898SOL    HW181488   8.239   4.332   4.712
25898SOL    HW281489   8.152   4.454   4.777
25899SOL     OW81490   9.176   4.659   5.578
25899SOL    HW181491   9.130   4.652   5.489
25899SOL    HW281492   9.114   4.703   5.644
25900SOL     OW81493   7.755   3.787   4.342
25900SOL    HW181494   7.744   3.881   4.375
25900SOL    HW281495   7.750   3.724   4.419
25901SOL     OW81496   9.070   4.091   4.098
25901SOL    HW181497   9.072   4.015   4.162
25901SOL    HW281498   9.022   4.168   4.138
25902SOL     OW81499   8.471   4.490   4.690
25902SOL    HW181500   8.486   4.511   4.786
25902SOL    HW281501   8.441   4.395   4.681
25903SOL     OW81502   8.428   5.297   5.424
25903SOL    HW181503   8.408   5.341   5.336
25903SOL    HW281504   8.467   5.206   5.408
25904SOL     OW81505   9.307   5.242   5.329
25904SOL    HW181506   9.321   5.269   5.234
25904SOL    HW281507   9.390   5.264   5.382
25905SOL     OW81508   7.798   4.622   5.528
25905SOL    HW181509   7.874   4.666   5.576
25905SOL    HW281510   7.833   4.575   5.446
25906SOL     OW81511   8.988   3.998   3.849
25906SOL    HW181512   8.927   3.923   3.872
25906SOL    HW281513   9.010   4.050   3.932
25907SOL     OW81514   8.751   4.562   3.766
25907SOL    HW181515   8.785   4.469   3.781
25907SOL    HW281516   8.769   4.589   3.671
25908SOL     OW81517   8.516   5.057   4.573
25908SOL    HW181518   8.523   4.973   4.518
25908SOL    HW281519   8.578   5.126   4.537
25909SOL     OW81520   7.767   4.534   4.673
25909SOL    HW181521   7.860   4.570   4.678
25909SOL    HW281522   7.761   4.449   4.725
25910SOL     OW81523   7.787   4.233   4.730
25910SOL    HW181524   7.735   4.150   4.713
25910SOL    HW281525   7.864   4.238   4.666
25911SOL     OW81526   8.586   4.104   5.402
25911SOL    HW181527   8.541   4.167   5.466
25911SOL    HW281528   8.679   4.135   5.385
25912SOL     OW81529   8.608   3.931   5.201
25912SOL    HW181530   8.608   3.995   5.278
25912SOL    HW281531   8.636   3.979   5.118
25913SOL     OW81532   7.456   5.050   3.924
25913SOL    HW181533   7.363   5.071   3.893
25913SOL    HW281534   7.466   4.951   3.937
25914SOL     OW81535   7.536   5.525   4.651
25914SOL    HW181536   7.494   5.439   4.624
25914SOL    HW281537   7.630   5.528   4.617
25915SOL     OW81538   7.952   5.292   4.634
25915SOL    HW181539   8.018   5.366   4.643
25915SOL    HW281540   7.996   5.213   4.592
25916SOL     OW81541   8.450   4.520   4.962
25916SOL    HW181542   8.491   4.488   5.048
25916SOL    HW281543   8.354   4.493   4.959
25917SOL     OW81544   7.488   4.268   4.838
25917SOL    HW181545   7.573   4.235   4.797
25917SOL    HW281546   7.501   4.283   4.936
25918SOL     OW81547   7.637   4.244   5.446
25918SOL    HW181548   7.696   4.204   5.376
25918SOL    HW281549   7.579   4.315   5.405
25919SOL     OW81550   8.817   4.674   5.384
25919SOL    HW181551   8.856   4.763   5.404
25919SOL    HW281552   8.827   4.654   5.287
25920SOL     OW81553   9.105   4.328   4.930
25920SOL    HW181554   9.067   4.259   4.992
25920SOL    HW281555   9.187   4.292   4.886
25921SOL     OW81556   7.700   5.288   5.468
25921SOL    HW181557   7.670   5.345   5.544
25921SOL    HW281558   7.693   5.191   5.494
25922SOL     OW81559   8.119   4.188   4.993
25922SOL    HW181560   8.085   4.099   4.963
25922SOL    HW281561   8.145   4.242   4.913
25923SOL     OW81562   7.921   4.224   3.915
25923SOL    HW181563   7.982   4.304   3.919
25923SOL    HW281564   7.826   4.255   3.922
25924SOL     OW81565   7.607   4.861   5.190
25924SOL    HW181566   7.629   4.800   5.266
25924SOL    HW281567   7.617   4.812   5.104
25925SOL     OW81568   8.795   4.783   4.958
25925SOL    HW181569   8.819   4.720   4.884
25925SOL    HW281570   8.705   4.823   4.940
25926SOL     OW81571   8.750   4.579   4.033
25926SOL    HW181572   8.664   4.548   4.075
25926SOL    HW281573   8.746   4.565   3.934
25927SOL     OW81574   9.207   5.471   4.878
25927SOL    HW181575   9.268   5.501   4.805
25927SOL    HW281576   9.169   5.382   4.856
25928SOL     OW81577   8.700   5.455   4.852
25928SOL    HW181578   8.784   5.460   4.798
25928SOL    HW281579   8.677   5.359   4.870
25929SOL     OW81580   7.531   4.982   4.746
25929SOL    HW181581   7.526   4.981   4.846
25929SOL    HW281582   7.448   4.941   4.708
25930SOL     OW81583   8.136   5.386   5.440
25930SOL    HW181584   8.080   5.467   5.449
25930SOL    HW281585   8.188   5.390   5.354
25931SOL     OW81586   9.174   3.859   4.247
25931SOL    HW181587   9.247   3.842   4.180
25931SOL    HW281588   9.143   3.772   4.285
25932SOL     OW81589   8.836   5.297   4.201
25932SOL    HW181590   8.903   5.309   4.127
25932SOL    HW281591   8.796   5.386   4.224
25933SOL     OW81592   7.578   5.518   5.575
25933SOL    HW181593   7.537   5.444   5.628
25933SOL    HW281594   7.642   5.569   5.633
25934SOL     OW81595   8.728   4.651   4.396
25934SOL    HW181596   8.788   4.570   4.398
25934SOL    HW281597   8.768   4.720   4.336
25935SOL     OW81598   8.278   4.997   5.146
25935SOL    HW181599   8.273   5.030   5.241
25935SOL    HW281600   8.192   5.016   5.100
25936SOL     OW81601   8.120   5.340   3.878
25936SOL    HW181602   8.129   5.350   3.779
25936SOL    HW281603   8.080   5.251   3.899
25937SOL     OW81604   9.098   5.444   5.118
25937SOL    HW181605   9.151   5.454   5.034
25937SOL    HW281606   9.071   5.534   5.152
25938SOL     OW81607   9.289   3.899   4.687
25938SOL    HW181608   9.328   3.814   4.651
25938SOL    HW281609   9.191   3.901   4.668
25939SOL     OW81610   7.711   4.050   4.444
25939SOL    HW181611   7.632   4.101   4.410
25939SOL    HW281612   7.702   4.035   4.542
25940SOL     OW81613   8.642   5.336   3.755
25940SOL    HW181614   8.648   5.243   3.792
25940SOL    HW281615   8.583   5.336   3.675
25941SOL     OW81616   8.270   4.726   5.096
25941SOL    HW181617   8.310   4.725   5.004
25941SOL    HW281618   8.280   4.818   5.136
25942SOL     OW81619   8.364   4.634   4.015
25942SOL    HW181620   8.427   4.672   3.947
25942SOL    HW281621   8.404   4.551   4.054
25943SOL     OW81622   7.820   5.012   5.214
25943SOL    HW181623   7.807   5.105   5.180
25943SOL    HW281624   7.736   4.960   5.201
25944SOL     OW81625   9.062   5.016   5.013
25944SOL    HW181626   9.122   5.019   5.093
25944SOL    HW281627   8.987   5.080   5.026
25945SOL     OW81628   8.487   4.822   4.420
25945SOL    HW181629   8.417   4.775   4.474
25945SOL    HW281630   8.546   4.754   4.377
25946SOL     OW81631   8.462   3.960   4.695
25946SOL    HW181632   8.454   3.924   4.602
25946SOL    HW281633   8.460   3.884   4.760
25947SOL     OW81634   8.038   5.211   4.215
25947SOL    HW181635   8.080   5.153   4.145
25947SOL    HW281636   7.994   5.290   4.171
25948SOL     OW81637   9.157   4.109   5.105
25948SOL    HW181638   9.230   4.178   5.109
25948SOL    HW281639   9.185   4.034   5.046
25949SOL     OW81640   7.703   5.072   4.014
25949SOL    HW181641   7.607   5.073   3.987
25949SOL    HW281642   7.715   5.125   4.098
25950SOL     OW81643   7.553   4.737   5.450
25950SOL    HW181644   7.476   4.704   5.504
25950SOL    HW281645   7.638   4.707   5.492
25951SOL     OW81646   8.120   3.927   5.213
25951SOL    HW181647   8.210   3.911   5.173
25951SOL    HW281648   8.128   3.932   5.312
25952SOL     OW81649   7.523   4.069   3.757
25952SOL    HW181650   7.431   4.041   3.728
25952SOL    HW281651   7.554   4.146   3.701
25953SOL     OW81652   8.888   4.580   5.122
25953SOL    HW181653   8.831   4.632   5.059
25953SOL    HW281654   8.984   4.592   5.098
25954SOL     OW81655   7.520   3.890   4.042
25954SOL    HW181656   7.503   3.973   3.988
25954SOL    HW281657   7.610   3.853   4.020
25955SOL     OW81658   8.631   5.059   3.843
25955SOL    HW181659   8.532   5.048   3.845
25955SOL    HW281660   8.665   5.074   3.936
25956SOL     OW81661   8.061   4.566   5.155
25956SOL    HW181662   8.117   4.647   5.138
25956SOL    HW281663   8.120   4.486   5.158
25957SOL     OW81664   8.941   5.491   4.683
25957SOL    HW181665   8.974   5.555   4.614
25957SOL    HW281666   9.007   5.485   4.758
25958SOL     OW81667   8.898   4.944   5.357
25958SOL    HW181668   8.889   4.934   5.456
25958SOL    HW281669   8.994   4.937   5.331
25959SOL     OW81670   7.838   5.465   5.284
25959SOL    HW181671   7.747   5.506   5.282
25959SOL    HW281672   7.831   5.371   5.316
25960SOL     OW81673   9.122   4.607   4.978
25960SOL    HW181674   9.095   4.518   4.941
25960SOL    HW281675   9.123   4.675   4.905
25961SOL     OW81676   8.673   4.049   4.173
25961SOL    HW181677   8.738   3.975   4.162
25961SOL    HW281678   8.693   4.099   4.257
25962SOL     OW81679   8.042   4.469   4.376
25962SOL    HW181680   8.092   4.554   4.357
25962SOL    HW281681   7.954   4.471   4.328
25963SOL     OW81682   9.225   4.066   5.366
25963SOL    HW181683   9.208   4.097   5.272
25963SOL    HW281684   9.141   4.029   5.404
25964SOL     OW81685   9.178   4.658   5.241
25964SOL    HW181686   9.216   4.749   5.256
25964SOL    HW281687   9.170   4.641   5.142
25965SOL     OW81688   8.109   5.514   4.677
25965SOL    HW181689   8.063   5.602   4.664
25965SOL    HW281690   8.208   5.526   4.670
25966SOL     OW81691   8.307   4.680   4.585
25966SOL    HW181692   8.361   4.611   4.633
25966SOL    HW281693   8.275   4.749   4.651
25967SOL     OW81694   8.531   4.708   3.811
25967SOL    HW181695   8.508   4.761   3.729
25967SOL    HW281696   8.612   4.652   3.792
25968SOL     OW81697   9.309   5.293   4.575
25968SOL    HW181698   9.238   5.281   4.505
25968SOL    HW281699   9.310   5.214   4.635
25969SOL     OW81700   7.669   5.038   5.568
25969SOL    HW181701   7.604   4.965   5.547
25969SOL    HW281702   7.673   5.052   5.666
25970SOL     OW81703   7.527   4.964   4.377
25970SOL    HW181704   7.526   4.917   4.465
25970SOL    HW281705   7.609   4.936   4.326
25971SOL     OW81706   8.120   5.115   5.348
25971SOL    HW181707   8.042   5.065   5.386
25971SOL    HW281708   8.117   5.210   5.379
25972SOL     OW81709   9.272   3.916   4.951
25972SOL    HW181710   9.268   3.826   4.995
25972SOL    HW281711   9.275   3.905   4.852
25973SOL     OW81712   9.153   5.211   4.828
25973SOL    HW181713   9.060   5.186   4.801
25973SOL    HW281714   9.179   5.161   4.910
25974SOL     OW81715   7.765   4.271   5.004
25974SOL    HW181716   7.803   4.212   5.076
25974SOL    HW281717   7.805   4.245   4.916
25975SOL     OW81718   8.260   5.310   4.411
25975SOL    HW181719   8.292   5.320   4.317
25975SOL    HW281720   8.181   5.248   4.413
25976SOL     OW81721   8.872   3.938   4.836
25976SOL    HW181722   8.924   3.873   4.891
25976SOL    HW281723   8.823   4.001   4.897
25977SOL     OW81724   8.449   3.758   4.878
25977SOL    HW181725   8.386   3.686   4.847
25977SOL    HW281726   8.542   3.722   4.878
25978SOL     OW81727   8.218   5.054   4.025
25978SOL    HW181728   8.172   4.967   4.042
25978SOL    HW281729   8.309   5.051   4.066
25979SOL     OW81730   8.066   5.291   5.008
25979SOL    HW181731   8.061   5.373   5.065
25979SOL    HW281732   8.155   5.288   4.963
25980SOL     OW81733   8.800   3.776   3.892
25980SOL    HW181734   8.835   3.735   3.808
25980SOL    HW281735   8.710   3.738   3.912
25981SOL     OW81736   8.748   4.177   4.415
25981SOL    HW181737   8.689   4.257   4.419
25981SOL    HW281738   8.763   4.142   4.508
25982SOL     OW81739   9.041   3.945   4.606
25982SOL    HW181740   8.957   3.944   4.660
25982SOL    HW281741   9.043   4.028   4.550
25983SOL     OW81742   7.487   4.801   4.024
25983SOL    HW181743   7.586   4.790   4.015
25983SOL    HW281744   7.447   4.715   4.056
25984SOL     OW81745   8.323   5.370   4.061
25984SOL    HW181746   8.246   5.335   4.007
25984SOL    HW281747   8.291   5.441   4.123
25985SOL     OW81748   7.678   4.352   5.699
25985SOL    HW181749   7.585   4.350   5.736
25985SOL    HW281750   7.679   4.313   5.607
25986SOL     OW81751   7.673   3.999   6.582
25986SOL    HW181752   7.708   3.982   6.674
25986SOL    HW281753   7.585   3.954   6.570
25987SOL     OW81754   7.467   4.092   6.233
25987SOL    HW181755   7.385   4.135   6.272
25987SOL    HW281756   7.439   4.019   6.170
25988SOL     OW81757   8.017   4.999   6.751
25988SOL    HW181758   7.924   4.992   6.714
25988SOL    HW281759   8.028   5.088   6.795
25989SOL     OW81760   9.003   5.235   6.289
25989SOL    HW181761   8.946   5.219   6.370
25989SOL    HW281762   8.944   5.245   6.209
25990SOL     OW81763   8.583   4.427   6.303
25990SOL    HW181764   8.640   4.505   6.278
25990SOL    HW281765   8.523   4.453   6.379
25991SOL     OW81766   9.203   4.331   5.817
25991SOL    HW181767   9.191   4.318   5.718
25991SOL    HW281768   9.173   4.250   5.866
25992SOL     OW81769   8.298   4.522   7.409
25992SOL    HW181770   8.294   4.598   7.474
25992SOL    HW281771   8.320   4.558   7.318
25993SOL     OW81772   8.134   4.885   7.389
25993SOL    HW181773   8.194   4.964   7.403
25993SOL    HW281774   8.048   4.916   7.348
25994SOL     OW81775   7.783   5.159   6.647
25994SOL    HW181776   7.705   5.128   6.594
25994SOL    HW281777   7.841   5.217   6.590
25995SOL     OW81778   8.908   5.229   6.925
25995SOL    HW181779   8.932   5.323   6.951
25995SOL    HW281780   8.892   5.175   7.007
25996SOL     OW81781   7.886   4.116   7.085
25996SOL    HW181782   7.968   4.060   7.094
25996SOL    HW281783   7.805   4.058   7.089
25997SOL     OW81784   9.051   4.171   6.323
25997SOL    HW181785   8.977   4.217   6.273
25997SOL    HW281786   9.102   4.239   6.376
25998SOL     OW81787   7.679   5.437   6.069
25998SOL    HW181788   7.713   5.514   6.123
25998SOL    HW281789   7.723   5.437   5.979
25999SOL     OW81790   8.575   5.065   7.276
25999SOL    HW181791   8.622   5.065   7.364
25999SOL    HW281792   8.527   4.978   7.265
26000SOL     OW81793   7.678   5.158   6.124
26000SOL    HW181794   7.652   5.254   6.124
26000SOL    HW281795   7.607   5.104   6.169
26001SOL     OW81796   7.688   4.815   6.472
26001SOL    HW181797   7.702   4.731   6.524
26001SOL    HW281798   7.633   4.879   6.527
26002SOL     OW81799   8.068   5.510   7.025
26002SOL    HW181800   7.976   5.493   7.060
26002SOL    HW281801   8.096   5.602   7.051
26003SOL     OW81802   8.054   4.688   5.709
26003SOL    HW181803   8.061   4.772   5.655
26003SOL    HW281804   8.100   4.701   5.797
26004SOL     OW81805   9.042   3.838   7.066
26004SOL    HW181806   9.024   3.905   6.994
26004SOL    HW281807   9.039   3.884   7.155
26005SOL     OW81808   7.570   4.367   6.149
26005SOL    HW181809   7.525   4.279   6.166
26005SOL    HW281810   7.569   4.421   6.233
26006SOL     OW81811   9.290   5.491   5.945
26006SOL    HW181812   9.344   5.462   6.025
26006SOL    HW281813   9.320   5.581   5.916
26007SOL     OW81814   7.475   5.320   5.703
26007SOL    HW181815   7.456   5.224   5.724
26007SOL    HW281816   7.442   5.378   5.778
26008SOL     OW81817   9.137   4.646   6.198
26008SOL    HW181818   9.232   4.617   6.206
26008SOL    HW281819   9.129   4.711   6.123
26009SOL     OW81820   9.089   4.832   6.018
26009SOL    HW181821   9.175   4.834   5.966
26009SOL    HW281822   9.103   4.879   6.106
26010SOL     OW81823   7.561   4.461   7.183
26010SOL    HW181824   7.649   4.448   7.228
26010SOL    HW281825   7.548   4.558   7.161
26011SOL     OW81826   8.061   5.089   6.312
26011SOL    HW181827   8.012   5.002   6.321
26011SOL    HW281828   8.038   5.132   6.225
26012SOL     OW81829   8.741   4.952   7.009
26012SOL    HW181830   8.778   4.879   6.951
26012SOL    HW281831   8.793   4.957   7.094
26013SOL     OW81832   7.645   4.700   6.850
26013SOL    HW181833   7.734   4.655   6.836
26013SOL    HW281834   7.572   4.635   6.831
26014SOL     OW81835   8.973   4.723   5.776
26014SOL    HW181836   8.910   4.647   5.789
26014SOL    HW281837   9.021   4.741   5.862
26015SOL     OW81838   8.635   5.516   7.202
26015SOL    HW181839   8.659   5.576   7.126
26015SOL    HW281840   8.642   5.421   7.172
26016SOL     OW81841   7.765   3.975   7.387
26016SOL    HW181842   7.836   4.046   7.393
26016SOL    HW281843   7.677   4.014   7.415
26017SOL     OW81844   8.914   5.141   6.539
26017SOL    HW181845   8.855   5.147   6.619
26017SOL    HW281846   8.899   5.053   6.493
26018SOL     OW81847   9.115   5.438   6.158
26018SOL    HW181848   9.074   5.415   6.070
26018SOL    HW281849   9.097   5.364   6.223
26019SOL     OW81850   8.046   4.453   5.856
26019SOL    HW181851   8.070   4.522   5.788
26019SOL    HW281852   7.968   4.486   5.910
26020SOL     OW81853   8.729   4.069   6.530
26020SOL    HW181854   8.643   4.019   6.517
26020SOL    HW281855   8.791   4.015   6.586
26021SOL     OW81856   9.024   5.386   5.893
26021SOL    HW181857   9.113   5.432   5.896
26021SOL    HW281858   9.003   5.362   5.798
26022SOL     OW81859   8.255   4.329   7.051
26022SOL    HW181860   8.208   4.326   7.140
26022SOL    HW281861   8.204   4.274   6.985
26023SOL     OW81862   8.421   4.614   7.158
26023SOL    HW181863   8.467   4.530   7.129
26023SOL    HW281864   8.365   4.648   7.083
26024SOL     OW81865   8.439   4.134   6.828
26024SOL    HW181866   8.362   4.168   6.882
26024SOL    HW281867   8.405   4.083   6.749
26025SOL     OW81868   8.489   4.425   6.015
26025SOL    HW181869   8.515   4.421   6.111
26025SOL    HW281870   8.404   4.374   6.001
26026SOL     OW81871   7.524   4.535   6.375
26026SOL    HW181872   7.623   4.523   6.384
26026SOL    HW281873   7.500   4.630   6.396
26027SOL     OW81874   7.578   5.545   7.157
26027SOL    HW181875   7.568   5.530   7.256
26027SOL    HW281876   7.492   5.581   7.121
26028SOL     OW81877   8.810   4.868   6.131
26028SOL    HW181878   8.893   4.839   6.083
26028SOL    HW281879   8.761   4.935   6.075
26029SOL     OW81880   7.998   3.920   6.471
26029SOL    HW181881   7.993   3.915   6.571
26029SOL    HW281882   8.000   4.016   6.442
26030SOL     OW81883   8.456   5.180   6.063
26030SOL    HW181884   8.410   5.252   6.011
26030SOL    HW281885   8.452   5.200   6.161
26031SOL     OW81886   7.799   5.525   6.439
26031SOL    HW181887   7.849   5.439   6.445
26031SOL    HW281888   7.864   5.602   6.436
26032SOL     OW81889   9.243   4.790   6.459
26032SOL    HW181890   9.181   4.775   6.383
26032SOL    HW281891   9.191   4.801   6.544
26033SOL     OW81892   8.675   5.274   7.092
26033SOL    HW181893   8.681   5.197   7.156
26033SOL    HW281894   8.623   5.248   7.012
26034SOL     OW81895   7.769   4.667   5.828
26034SOL    HW181896   7.851   4.706   5.786
26034SOL    HW281897   7.742   4.585   5.779
26035SOL     OW81898   8.906   4.459   6.314
26035SOL    HW181899   8.901   4.394   6.389
26035SOL    HW281900   8.986   4.518   6.327
26036SOL     OW81901   7.909   4.990   7.313
26036SOL    HW181902   7.859   4.991   7.227
26036SOL    HW281903   7.846   4.972   7.389
26037SOL     OW81904   8.559   5.500   5.823
26037SOL    HW181905   8.499   5.438   5.873
26037SOL    HW281906   8.590   5.456   5.738
26038SOL     OW81907   7.650   4.009   7.084
26038SOL    HW181908   7.570   4.069   7.071
26038SOL    HW281909   7.640   3.960   7.170
26039SOL     OW81910   9.080   5.101   5.667
26039SOL    HW181911   9.048   5.195   5.657
26039SOL    HW281912   9.004   5.038   5.655
26040SOL     OW81913   7.912   5.467   5.909
26040SOL    HW181914   7.945   5.506   5.995
26040SOL    HW281915   7.988   5.460   5.844
26041SOL     OW81916   8.848   3.831   6.012
26041SOL    HW181917   8.824   3.794   5.922
26041SOL    HW281918   8.947   3.847   6.016
26042SOL     OW81919   7.697   5.509   6.827
26042SOL    HW181920   7.754   5.444   6.877
26042SOL    HW281921   7.681   5.476   6.734
26043SOL     OW81922   8.388   5.422   6.490
26043SOL    HW181923   8.468   5.365   6.511
26043SOL    HW281924   8.339   5.382   6.413
26044SOL     OW81925   7.830   4.424   6.066
26044SOL    HW181926   7.875   4.334   6.063
26044SOL    HW281927   7.736   4.413   6.099
26045SOL     OW81928   8.995   3.946   7.315
26045SOL    HW181929   8.990   3.983   7.407
26045SOL    HW281930   8.923   3.877   7.303
26046SOL     OW81931   8.062   3.846   5.703
26046SOL    HW181932   8.160   3.824   5.710
26046SOL    HW281933   8.031   3.829   5.610
26047SOL     OW81934   8.229   3.988   7.335
26047SOL    HW181935   8.296   3.927   7.378
26047SOL    HW281936   8.156   4.007   7.400
26048SOL     OW81937   8.336   5.238   6.781
26048SOL    HW181938   8.313   5.213   6.687
26048SOL    HW281939   8.397   5.169   6.820
26049SOL     OW81940   8.251   5.126   6.510
26049SOL    HW181941   8.341   5.140   6.468
26049SOL    HW281942   8.180   5.128   6.439
26050SOL     OW81943   8.370   4.227   6.485
26050SOL    HW181944   8.345   4.218   6.389
26050SOL    HW281945   8.418   4.145   6.516
26051SOL     OW81946   7.987   3.788   6.098
26051SOL    HW181947   7.906   3.789   6.156
26051SOL    HW281948   7.990   3.871   6.043
26052SOL     OW81949   8.882   4.912   5.627
26052SOL    HW181950   8.914   4.836   5.684
26052SOL    HW281951   8.790   4.939   5.657
26053SOL     OW81952   7.745   3.759   5.757
26053SOL    HW181953   7.794   3.843   5.736
26053SOL    HW281954   7.807   3.694   5.802
26054SOL     OW81955   8.524   4.407   7.050
26054SOL    HW181956   8.444   4.346   7.053
26054SOL    HW281957   8.605   4.354   7.026
26055SOL     OW81958   8.675   5.294   6.379
26055SOL    HW181959   8.696   5.368   6.314
26055SOL    HW281960   8.743   5.294   6.452
26056SOL     OW81961   7.907   4.876   6.327
26056SOL    HW181962   7.836   4.849   6.392
26056SOL    HW281963   7.881   4.848   6.234
26057SOL     OW81964   8.719   5.521   6.177
26057SOL    HW181965   8.763   5.585   6.113
26057SOL    HW281966   8.669   5.573   6.247
26058SOL     OW81967   8.480   4.273   5.602
26058SOL    HW181968   8.439   4.355   5.563
26058SOL    HW281969   8.544   4.299   5.675
26059SOL     OW81970   7.526   4.280   6.972
26059SOL    HW181971   7.618   4.279   6.931
26059SOL    HW281972   7.520   4.354   7.039
26060SOL     OW81973   8.009   3.946   6.733
26060SOL    HW181974   8.047   3.862   6.770
26060SOL    HW281975   7.921   3.965   6.777
26061SOL     OW81976   8.877   4.897   6.453
26061SOL    HW181977   8.822   4.813   6.446
26061SOL    HW281978   8.903   4.926   6.361
26062SOL     OW81979   8.914   4.314   6.578
26062SOL    HW181980   8.884   4.219   6.585
26062SOL    HW281981   8.987   4.330   6.644
26063SOL     OW81982   9.305   4.557   5.963
26063SOL    HW181983   9.347   4.493   6.027
26063SOL    HW281984   9.267   4.506   5.885
26064SOL     OW81985   7.936   5.109   5.760
26064SOL    HW181986   7.849   5.094   5.807
26064SOL    HW281987   7.919   5.135   5.665
26065SOL     OW81988   9.112   5.004   6.243
26065SOL    HW181989   9.211   5.012   6.257
26065SOL    HW281990   9.067   5.088   6.274
26066SOL     OW81991   8.838   4.299   5.664
26066SOL    HW181992   8.784   4.278   5.745
26066SOL    HW281993   8.929   4.258   5.673
26067SOL     OW81994   9.202   4.947   7.174
26067SOL    HW181995   9.293   4.908   7.161
26067SOL    HW281996   9.210   5.043   7.198
26068SOL     OW81997   8.512   5.071   6.926
26068SOL    HW181998   8.432   5.048   6.981
26068SOL    HW281999   8.595   5.045   6.975
26069SOL     OW82000   9.040   5.353   7.211
26069SOL    HW182001   9.067   5.387   7.121
26069SOL    HW282002   9.119   5.315   7.257
26070SOL     OW82003   8.559   4.919   6.686
26070SOL    HW182004   8.519   4.963   6.767
26070SOL    HW282005   8.518   4.956   6.603
26071SOL     OW82006   9.086   4.823   6.665
26071SOL    HW182007   9.091   4.904   6.724
26071SOL    HW282008   9.000   4.825   6.614
26072SOL     OW82009   8.363   3.813   6.988
26072SOL    HW182010   8.388   3.793   6.893
26072SOL    HW282011   8.435   3.869   7.030
26073SOL     OW82012   8.428   4.840   7.305
26073SOL    HW182013   8.329   4.846   7.315
26073SOL    HW282014   8.451   4.760   7.249
26074SOL     OW82015   8.153   4.774   5.954
26074SOL    HW182016   8.139   4.781   6.053
26074SOL    HW282017   8.237   4.723   5.936
26075SOL     OW82018   7.858   4.537   6.837
26075SOL    HW182019   7.944   4.549   6.887
26075SOL    HW282020   7.816   4.450   6.864
26076SOL     OW82021   8.722   4.110   6.848
26076SOL    HW182022   8.743   4.184   6.912
26076SOL    HW282023   8.633   4.127   6.805
26077SOL     OW82024   7.512   5.288   6.917
26077SOL    HW182025   7.466   5.370   6.883
26077SOL    HW282026   7.610   5.307   6.926
26078SOL     OW82027   7.815   4.824   6.087
26078SOL    HW182028   7.808   4.907   6.031
26078SOL    HW282029   7.819   4.744   6.027
26079SOL     OW82030   8.014   4.261   6.451
26079SOL    HW182031   8.026   4.327   6.377
26079SOL    HW282032   8.060   4.295   6.534
26080SOL     OW82033   8.700   5.072   5.974
26080SOL    HW182034   8.750   5.149   6.014
26080SOL    HW282035   8.605   5.074   6.006
26081SOL     OW82036   8.720   5.169   6.728
26081SOL    HW182037   8.767   5.182   6.815
26081SOL    HW282038   8.654   5.095   6.737
26082SOL     OW82039   9.030   4.363   6.058
26082SOL    HW182040   8.999   4.424   6.131
26082SOL    HW282041   9.080   4.415   5.989
26083SOL     OW82042   7.802   5.234   6.915
26083SOL    HW182043   7.781   5.190   6.828
26083SOL    HW282044   7.899   5.260   6.918
26084SOL     OW82045   7.850   4.475   7.184
26084SOL    HW182046   7.918   4.530   7.137
26084SOL    HW282047   7.890   4.387   7.211
26085SOL     OW82048   8.461   3.829   7.356
26085SOL    HW182049   8.467   3.914   7.304
26085SOL    HW282050   8.493   3.753   7.299
26086SOL     OW82051   7.952   3.774   7.326
26086SOL    HW182052   7.910   3.717   7.256
26086SOL    HW282053   7.886   3.843   7.358
26087SOL     OW82054   8.021   4.594   6.615
26087SOL    HW182055   8.065   4.683   6.606
26087SOL    HW282056   7.958   4.594   6.692
26088SOL     OW82057   8.808   4.586   6.631
26088SOL    HW182058   8.733   4.586   6.565
26088SOL    HW282059   8.845   4.494   6.640
26089SOL     OW82060   8.657   4.249   5.861
26089SOL    HW182061   8.670   4.165   5.915
26089SOL    HW282062   8.628   4.323   5.921
26090SOL     OW82063   7.755   3.937   6.817
26090SOL    HW182064   7.732   3.974   6.907
26090SOL    HW282065   7.725   3.842   6.811
26091SOL     OW82066   7.485   5.034   6.868
26091SOL    HW182067   7.538   4.985   6.936
26091SOL    HW282068   7.507   5.132   6.873
26092SOL     OW82069   9.176   4.659   7.440
26092SOL    HW182070   9.130   4.652   7.351
26092SOL    HW282071   9.114   4.703   7.506
26093SOL     OW82072   7.755   3.787   6.204
26093SOL    HW182073   7.744   3.881   6.237
26093SOL    HW282074   7.750   3.724   6.281
26094SOL     OW82075   9.070   4.091   5.960
26094SOL    HW182076   9.072   4.015   6.024
26094SOL    HW282077   9.022   4.168   6.000
26095SOL     OW82078   8.428   5.297   7.286
26095SOL    HW182079   8.408   5.341   7.198
26095SOL    HW282080   8.467   5.206   7.270
26096SOL     OW82081   9.307   5.242   7.191
26096SOL    HW182082   9.321   5.269   7.096
26096SOL    HW282083   9.390   5.264   7.244
26097SOL     OW82084   7.798   4.622   7.390
26097SOL    HW182085   7.874   4.666   7.438
26097SOL    HW282086   7.833   4.575   7.308
26098SOL     OW82087   8.988   3.998   5.711
26098SOL    HW182088   8.927   3.923   5.734
26098SOL    HW282089   9.010   4.050   5.794
26099SOL     OW82090   8.751   4.562   5.628
26099SOL    HW182091   8.785   4.469   5.643
26099SOL    HW282092   8.769   4.589   5.533
26100SOL     OW82093   8.516   5.057   6.435
26100SOL    HW182094   8.523   4.973   6.380
26100SOL    HW282095   8.578   5.126   6.399
26101SOL     OW82096   7.767   4.534   6.535
26101SOL    HW182097   7.860   4.570   6.540
26101SOL    HW282098   7.761   4.449   6.587
26102SOL     OW82099   7.787   4.233   6.592
26102SOL    HW182100   7.735   4.150   6.575
26102SOL    HW282101   7.864   4.238   6.528
26103SOL     OW82102   8.608   3.931   7.063
26103SOL    HW182103   8.608   3.995   7.140
26103SOL    HW282104   8.636   3.979   6.980
26104SOL     OW82105   7.456   5.050   5.786
26104SOL    HW182106   7.363   5.071   5.755
26104SOL    HW282107   7.466   4.951   5.799
26105SOL     OW82108   7.536   5.525   6.513
26105SOL    HW182109   7.494   5.439   6.486
26105SOL    HW282110   7.630   5.528   6.479
26106SOL     OW82111   7.952   5.292   6.496
26106SOL    HW182112   8.018   5.366   6.505
26106SOL    HW282113   7.996   5.213   6.454
26107SOL     OW82114   8.450   4.520   6.824
26107SOL    HW182115   8.491   4.488   6.910
26107SOL    HW282116   8.354   4.493   6.821
26108SOL     OW82117   7.488   4.268   6.700
26108SOL    HW182118   7.573   4.235   6.659
26108SOL    HW282119   7.501   4.283   6.798
26109SOL     OW82120   7.637   4.244   7.308
26109SOL    HW182121   7.696   4.204   7.238
26109SOL    HW282122   7.579   4.315   7.267
26110SOL     OW82123   8.817   4.674   7.246
26110SOL    HW182124   8.856   4.763   7.266
26110SOL    HW282125   8.827   4.654   7.149
26111SOL     OW82126   9.105   4.328   6.792
26111SOL    HW182127   9.067   4.259   6.854
26111SOL    HW282128   9.187   4.292   6.748
26112SOL     OW82129   7.700   5.288   7.330
26112SOL    HW182130   7.670   5.345   7.406
26112SOL    HW282131   7.693   5.191   7.356
26113SOL     OW82132   8.119   4.188   6.855
26113SOL    HW182133   8.085   4.099   6.825
26113SOL    HW282134   8.145   4.242   6.775
26114SOL     OW82135   8.378   5.402   7.051
26114SOL    HW182136   8.354   5.384   6.956
26114SOL    HW282137   8.408   5.496   7.061
26115SOL     OW82138   7.607   4.861   7.052
26115SOL    HW182139   7.629   4.800   7.128
26115SOL    HW282140   7.617   4.812   6.966
26116SOL     OW82141   8.795   4.783   6.820
26116SOL    HW182142   8.819   4.720   6.746
26116SOL    HW282143   8.705   4.823   6.802
26117SOL     OW82144   8.750   4.579   5.895
26117SOL    HW182145   8.664   4.548   5.937
26117SOL    HW282146   8.746   4.565   5.796
26118SOL     OW82147   9.207   5.471   6.740
26118SOL    HW182148   9.268   5.501   6.667
26118SOL    HW282149   9.169   5.382   6.718
26119SOL     OW82150   8.700   5.455   6.714
26119SOL    HW182151   8.784   5.460   6.660
26119SOL    HW282152   8.677   5.359   6.732
26120SOL     OW82153   7.531   4.982   6.608
26120SOL    HW182154   7.526   4.981   6.708
26120SOL    HW282155   7.448   4.941   6.570
26121SOL     OW82156   8.136   5.386   7.302
26121SOL    HW182157   8.080   5.467   7.311
26121SOL    HW282158   8.188   5.390   7.216
26122SOL     OW82159   9.174   3.859   6.109
26122SOL    HW182160   9.247   3.842   6.042
26122SOL    HW282161   9.143   3.772   6.147
26123SOL     OW82162   8.836   5.297   6.063
26123SOL    HW182163   8.903   5.309   5.989
26123SOL    HW282164   8.796   5.386   6.086
26124SOL     OW82165   7.578   5.518   7.437
26124SOL    HW182166   7.537   5.444   7.490
26124SOL    HW282167   7.642   5.569   7.495
26125SOL     OW82168   8.728   4.651   6.258
26125SOL    HW182169   8.788   4.570   6.260
26125SOL    HW282170   8.768   4.720   6.198
26126SOL     OW82171   8.278   4.997   7.008
26126SOL    HW182172   8.273   5.030   7.103
26126SOL    HW282173   8.192   5.016   6.962
26127SOL     OW82174   8.120   5.340   5.740
26127SOL    HW182175   8.129   5.350   5.641
26127SOL    HW282176   8.080   5.251   5.761
26128SOL     OW82177   9.098   5.444   6.980
26128SOL    HW182178   9.151   5.454   6.896
26128SOL    HW282179   9.071   5.534   7.014
26129SOL     OW82180   9.289   3.899   6.549
26129SOL    HW182181   9.328   3.814   6.513
26129SOL    HW282182   9.191   3.901   6.530
26130SOL     OW82183   7.711   4.050   6.306
26130SOL    HW182184   7.632   4.101   6.272
26130SOL    HW282185   7.702   4.035   6.404
26131SOL     OW82186   8.642   5.336   5.617
26131SOL    HW182187   8.648   5.243   5.654
26131SOL    HW282188   8.583   5.336   5.537
26132SOL     OW82189   8.270   4.726   6.958
26132SOL    HW182190   8.310   4.725   6.866
26132SOL    HW282191   8.280   4.818   6.998
26133SOL     OW82192   8.364   4.634   5.877
26133SOL    HW182193   8.427   4.672   5.809
26133SOL    HW282194   8.404   4.551   5.916
26134SOL     OW82195   8.952   5.331   5.630
26134SOL    HW182196   8.860   5.368   5.637
26134SOL    HW282197   8.990   5.351   5.540
26135SOL     OW82198   7.820   5.012   7.076
26135SOL    HW182199   7.807   5.105   7.042
26135SOL    HW282200   7.736   4.960   7.063
26136SOL     OW82201   9.062   5.016   6.875
26136SOL    HW182202   9.122   5.019   6.955
26136SOL    HW282203   8.987   5.080   6.888
26137SOL     OW82204   8.487   4.822   6.282
26137SOL    HW182205   8.417   4.775   6.336
26137SOL    HW282206   8.546   4.754   6.239
26138SOL     OW82207   8.462   3.960   6.557
26138SOL    HW182208   8.454   3.924   6.464
26138SOL    HW282209   8.460   3.884   6.622
26139SOL     OW82210   8.038   5.211   6.077
26139SOL    HW182211   8.080   5.153   6.007
26139SOL    HW282212   7.994   5.290   6.033
26140SOL     OW82213   9.157   4.109   6.967
26140SOL    HW182214   9.230   4.178   6.971
26140SOL    HW282215   9.185   4.034   6.908
26141SOL     OW82216   7.703   5.072   5.876
26141SOL    HW182217   7.607   5.073   5.849
26141SOL    HW282218   7.715   5.125   5.960
26142SOL     OW82219   7.553   4.737   7.312
26142SOL    HW182220   7.476   4.704   7.366
26142SOL    HW282221   7.638   4.707   7.354
26143SOL     OW82222   8.120   3.927   7.075
26143SOL    HW182223   8.210   3.911   7.035
26143SOL    HW282224   8.128   3.932   7.174
26144SOL     OW82225   7.523   4.069   5.619
26144SOL    HW182226   7.431   4.041   5.590
26144SOL    HW282227   7.554   4.146   5.563
26145SOL     OW82228   8.888   4.580   6.984
26145SOL    HW182229   8.831   4.632   6.921
26145SOL    HW282230   8.984   4.592   6.960
26146SOL     OW82231   7.520   3.890   5.904
26146SOL    HW182232   7.503   3.973   5.850
26146SOL    HW282233   7.610   3.853   5.882
26147SOL     OW82234   8.631   5.059   5.705
26147SOL    HW182235   8.532   5.048   5.707
26147SOL    HW282236   8.665   5.074   5.798
26148SOL     OW82237   8.061   4.566   7.017
26148SOL    HW182238   8.117   4.647   7.000
26148SOL    HW282239   8.120   4.486   7.020
26149SOL     OW82240   8.941   5.491   6.545
26149SOL    HW182241   8.974   5.555   6.476
26149SOL    HW282242   9.007   5.485   6.620
26150SOL     OW82243   8.164   4.289   7.294
26150SOL    HW182244   8.183   4.354   7.368
26150SOL    HW282245   8.224   4.209   7.303
26151SOL     OW82246   8.898   4.944   7.219
26151SOL    HW182247   8.889   4.934   7.318
26151SOL    HW282248   8.994   4.937   7.193
26152SOL     OW82249   7.838   5.465   7.146
26152SOL    HW182250   7.747   5.506   7.144
26152SOL    HW282251   7.831   5.371   7.178
26153SOL     OW82252   9.122   4.607   6.840
26153SOL    HW182253   9.095   4.518   6.803
26153SOL    HW282254   9.123   4.675   6.767
26154SOL     OW82255   8.673   4.049   6.035
26154SOL    HW182256   8.738   3.975   6.024
26154SOL    HW282257   8.693   4.099   6.119
26155SOL     OW82258   8.042   4.469   6.238
26155SOL    HW182259   8.092   4.554   6.219
26155SOL    HW282260   7.954   4.471   6.190
26156SOL     OW82261   9.225   4.066   7.228
26156SOL    HW182262   9.208   4.097   7.134
26156SOL    HW282263   9.141   4.029   7.266
26157SOL     OW82264   9.178   4.658   7.103
26157SOL    HW182265   9.216   4.749   7.118
26157SOL    HW282266   9.170   4.641   7.004
26158SOL     OW82267   8.307   5.098   5.602
26158SOL    HW182268   8.261   5.113   5.690
26158SOL    HW282269   8.351   5.183   5.572
26159SOL     OW82270   8.109   5.514   6.539
26159SOL    HW182271   8.063   5.602   6.526
26159SOL    HW282272   8.208   5.526   6.532
26160SOL     OW82273   8.531   4.708   5.673
26160SOL    HW182274   8.508   4.761   5.591
26160SOL    HW282275   8.612   4.652   5.654
26161SOL     OW82276   9.309   5.293   6.437
26161SOL    HW182277   9.238   5.281   6.367
26161SOL    HW282278   9.310   5.214   6.497
26162SOL     OW82279   7.669   5.038   7.430
26162SOL    HW182280   7.604   4.965   7.409
26162SOL    HW282281   7.673   5.052   7.528
26163SOL     OW82282   7.527   4.964   6.239
26163SOL    HW182283   7.526   4.917   6.327
26163SOL    HW282284   7.609   4.936   6.188
26164SOL     OW82285   8.120   5.115   7.210
26164SOL    HW182286   8.042   5.065   7.248
26164SOL    HW282287   8.117   5.210   7.241
26165SOL     OW82288   9.272   3.916   6.813
26165SOL    HW182289   9.268   3.826   6.857
26165SOL    HW282290   9.275   3.905   6.714
26166SOL     OW82291   7.876   4.148   6.106
26166SOL    HW182292   7.906   4.076   6.044
26166SOL    HW282293   7.837   4.108   6.189
26167SOL     OW82294   9.153   5.211   6.690
26167SOL    HW182295   9.060   5.186   6.663
26167SOL    HW282296   9.179   5.161   6.772
26168SOL     OW82297   7.765   4.271   6.866
26168SOL    HW182298   7.803   4.212   6.938
26168SOL    HW282299   7.805   4.245   6.778
26169SOL     OW82300   8.260   5.310   6.273
26169SOL    HW182301   8.292   5.320   6.179
26169SOL    HW282302   8.181   5.248   6.275
26170SOL     OW82303   8.872   3.938   6.698
26170SOL    HW182304   8.924   3.873   6.753
26170SOL    HW282305   8.823   4.001   6.759
26171SOL     OW82306   8.449   3.758   6.740
26171SOL    HW182307   8.386   3.686   6.709
26171SOL    HW282308   8.542   3.722   6.740
26172SOL     OW82309   8.218   5.054   5.887
26172SOL    HW182310   8.172   4.967   5.904
26172SOL    HW282311   8.309   5.051   5.928
26173SOL     OW82312   8.066   5.291   6.870
26173SOL    HW182313   8.061   5.373   6.927
26173SOL    HW282314   8.155   5.288   6.825
26174SOL     OW82315   8.800   3.776   5.754
26174SOL    HW182316   8.835   3.735   5.670
26174SOL    HW282317   8.710   3.738   5.774
26175SOL     OW82318   8.748   4.177   6.277
26175SOL    HW182319   8.689   4.257   6.281
26175SOL    HW282320   8.763   4.142   6.370
26176SOL     OW82321   9.041   3.945   6.468
26176SOL    HW182322   8.957   3.944   6.522
26176SOL    HW282323   9.043   4.028   6.412
26177SOL     OW82324   7.487   4.801   5.886
26177SOL    HW182325   7.586   4.790   5.877
26177SOL    HW282326   7.447   4.715   5.918
26178SOL     OW82327   8.323   5.370   5.923
26178SOL    HW182328   8.246   5.335   5.869
26178SOL    HW282329   8.291   5.441   5.985
26179SOL     OW82330   7.678   4.352   7.561
26179SOL    HW182331   7.585   4.350   7.598
26179SOL    HW282332   7.679   4.313   7.469
26180SOL     OW82333   7.673   3.999   8.444
26180SOL    HW182334   7.708   3.982   8.536
26180SOL    HW282335   7.585   3.954   8.432
26181SOL     OW82336   7.467   4.092   8.095
26181SOL    HW182337   7.385   4.135   8.134
26181SOL    HW282338   7.439   4.019   8.032
26182SOL     OW82339   8.017   4.999   8.613
26182SOL    HW182340   7.924   4.992   8.576
26182SOL    HW282341   8.028   5.088   8.657
26183SOL     OW82342   9.003   5.235   8.151
26183SOL    HW182343   8.946   5.219   8.232
26183SOL    HW282344   8.944   5.245   8.071
26184SOL     OW82345   8.583   4.427   8.165
26184SOL    HW182346   8.640   4.505   8.140
26184SOL    HW282347   8.523   4.453   8.241
26185SOL     OW82348   9.203   4.331   7.679
26185SOL    HW182349   9.191   4.318   7.580
26185SOL    HW282350   9.173   4.250   7.728
26186SOL     OW82351   8.216   4.868   8.471
26186SOL    HW182352   8.138   4.885   8.531
26186SOL    HW282353   8.250   4.955   8.435
26187SOL     OW82354   8.298   4.522   9.271
26187SOL    HW182355   8.294   4.598   9.336
26187SOL    HW282356   8.320   4.558   9.180
26188SOL     OW82357   8.133   4.736   8.113
26188SOL    HW182358   8.202   4.720   8.183
26188SOL    HW282359   8.060   4.793   8.151
26189SOL     OW82360   8.134   4.885   9.251
26189SOL    HW182361   8.194   4.964   9.265
26189SOL    HW282362   8.048   4.916   9.210
26190SOL     OW82363   7.783   5.159   8.509
26190SOL    HW182364   7.705   5.128   8.456
26190SOL    HW282365   7.841   5.217   8.452
26191SOL     OW82366   8.908   5.229   8.787
26191SOL    HW182367   8.932   5.323   8.813
26191SOL    HW282368   8.892   5.175   8.869
26192SOL     OW82369   7.886   4.116   8.947
26192SOL    HW182370   7.968   4.060   8.956
26192SOL    HW282371   7.805   4.058   8.951
26193SOL     OW82372   9.051   4.171   8.185
26193SOL    HW182373   8.977   4.217   8.135
26193SOL    HW282374   9.102   4.239   8.238
26194SOL     OW82375   7.679   5.437   7.931
26194SOL    HW182376   7.713   5.514   7.985
26194SOL    HW282377   7.723   5.437   7.841
26195SOL     OW82378   8.575   5.065   9.138
26195SOL    HW182379   8.622   5.065   9.226
26195SOL    HW282380   8.527   4.978   9.127
26196SOL     OW82381   7.678   5.158   7.986
26196SOL    HW182382   7.652   5.254   7.986
26196SOL    HW282383   7.607   5.104   8.031
26197SOL     OW82384   7.688   4.815   8.334
26197SOL    HW182385   7.702   4.731   8.386
26197SOL    HW282386   7.633   4.879   8.389
26198SOL     OW82387   8.068   5.510   8.887
26198SOL    HW182388   7.976   5.493   8.922
26198SOL    HW282389   8.096   5.602   8.913
26199SOL     OW82390   8.054   4.688   7.571
26199SOL    HW182391   8.061   4.772   7.517
26199SOL    HW282392   8.100   4.701   7.659
26200SOL     OW82393   9.042   3.838   8.928
26200SOL    HW182394   9.024   3.905   8.856
26200SOL    HW282395   9.039   3.884   9.017
26201SOL     OW82396   7.570   4.367   8.011
26201SOL    HW182397   7.525   4.279   8.028
26201SOL    HW282398   7.569   4.421   8.095
26202SOL     OW82399   7.475   5.320   7.565
26202SOL    HW182400   7.456   5.224   7.586
26202SOL    HW282401   7.442   5.378   7.640
26203SOL     OW82402   9.137   4.646   8.060
26203SOL    HW182403   9.232   4.617   8.068
26203SOL    HW282404   9.129   4.711   7.985
26204SOL     OW82405   9.089   4.832   7.880
26204SOL    HW182406   9.175   4.834   7.828
26204SOL    HW282407   9.103   4.879   7.968
26205SOL     OW82408   7.561   4.461   9.045
26205SOL    HW182409   7.649   4.448   9.090
26205SOL    HW282410   7.548   4.558   9.023
26206SOL     OW82411   8.061   5.089   8.174
26206SOL    HW182412   8.012   5.002   8.183
26206SOL    HW282413   8.038   5.132   8.087
26207SOL     OW82414   8.741   4.952   8.871
26207SOL    HW182415   8.778   4.879   8.813
26207SOL    HW282416   8.793   4.957   8.956
26208SOL     OW82417   8.257   3.728   7.950
26208SOL    HW182418   8.297   3.819   7.941
26208SOL    HW282419   8.157   3.736   7.956
26209SOL     OW82420   7.645   4.700   8.712
26209SOL    HW182421   7.734   4.655   8.698
26209SOL    HW282422   7.572   4.635   8.693
26210SOL     OW82423   8.973   4.723   7.638
26210SOL    HW182424   8.910   4.647   7.651
26210SOL    HW282425   9.021   4.741   7.724
26211SOL     OW82426   7.765   3.975   9.249
26211SOL    HW182427   7.836   4.046   9.255
26211SOL    HW282428   7.677   4.014   9.277
26212SOL     OW82429   8.914   5.141   8.401
26212SOL    HW182430   8.855   5.147   8.481
26212SOL    HW282431   8.899   5.053   8.355
26213SOL     OW82432   9.115   5.438   8.020
26213SOL    HW182433   9.074   5.415   7.932
26213SOL    HW282434   9.097   5.364   8.085
26214SOL     OW82435   8.046   4.453   7.718
26214SOL    HW182436   8.070   4.522   7.650
26214SOL    HW282437   7.968   4.486   7.772
26215SOL     OW82438   8.729   4.069   8.392
26215SOL    HW182439   8.643   4.019   8.379
26215SOL    HW282440   8.791   4.015   8.448
26216SOL     OW82441   9.024   5.386   7.755
26216SOL    HW182442   9.113   5.432   7.758
26216SOL    HW282443   9.003   5.362   7.660
26217SOL     OW82444   8.255   4.329   8.913
26217SOL    HW182445   8.208   4.326   9.002
26217SOL    HW282446   8.204   4.274   8.847
26218SOL     OW82447   8.842   4.193   9.122
26218SOL    HW182448   8.822   4.236   9.210
26218SOL    HW282449   8.920   4.131   9.131
26219SOL     OW82450   8.421   4.614   9.020
26219SOL    HW182451   8.467   4.530   8.991
26219SOL    HW282452   8.365   4.648   8.945
26220SOL     OW82453   8.439   4.134   8.690
26220SOL    HW182454   8.362   4.168   8.744
26220SOL    HW282455   8.405   4.083   8.611
26221SOL     OW82456   8.489   4.425   7.877
26221SOL    HW182457   8.515   4.421   7.973
26221SOL    HW282458   8.404   4.374   7.863
26222SOL     OW82459   7.524   4.535   8.237
26222SOL    HW182460   7.623   4.523   8.246
26222SOL    HW282461   7.500   4.630   8.258
26223SOL     OW82462   7.578   5.545   9.019
26223SOL    HW182463   7.568   5.530   9.118
26223SOL    HW282464   7.492   5.581   8.983
26224SOL     OW82465   8.313   4.072   7.643
26224SOL    HW182466   8.372   4.135   7.594
26224SOL    HW282467   8.332   3.978   7.614
26225SOL     OW82468   9.167   4.309   9.279
26225SOL    HW182469   9.141   4.398   9.243
26225SOL    HW282470   9.165   4.241   9.206
26226SOL     OW82471   8.810   4.868   7.993
26226SOL    HW182472   8.893   4.839   7.945
26226SOL    HW282473   8.761   4.935   7.937
26227SOL     OW82474   7.998   3.920   8.333
26227SOL    HW182475   7.993   3.915   8.433
26227SOL    HW282476   8.000   4.016   8.304
26228SOL     OW82477   8.456   5.180   7.925
26228SOL    HW182478   8.410   5.252   7.873
26228SOL    HW282479   8.452   5.200   8.023
26229SOL     OW82480   7.799   5.525   8.301
26229SOL    HW182481   7.849   5.439   8.307
26229SOL    HW282482   7.864   5.602   8.298
26230SOL     OW82483   9.243   4.790   8.321
26230SOL    HW182484   9.181   4.775   8.245
26230SOL    HW282485   9.191   4.801   8.406
26231SOL     OW82486   8.675   5.274   8.954
26231SOL    HW182487   8.681   5.197   9.018
26231SOL    HW282488   8.623   5.248   8.874
26232SOL     OW82489   7.769   4.667   7.690
26232SOL    HW182490   7.851   4.706   7.648
26232SOL    HW282491   7.742   4.585   7.641
26233SOL     OW82492   8.906   4.459   8.176
26233SOL    HW182493   8.901   4.394   8.251
26233SOL    HW282494   8.986   4.518   8.189
26234SOL     OW82495   7.909   4.990   9.175
26234SOL    HW182496   7.859   4.991   9.089
26234SOL    HW282497   7.846   4.972   9.251
26235SOL     OW82498   8.559   5.500   7.685
26235SOL    HW182499   8.499   5.438   7.735
26235SOL    HW282500   8.590   5.456   7.600
26236SOL     OW82501   7.650   4.009   8.946
26236SOL    HW182502   7.570   4.069   8.933
26236SOL    HW282503   7.640   3.960   9.032
26237SOL     OW82504   9.080   5.101   7.529
26237SOL    HW182505   9.048   5.195   7.519
26237SOL    HW282506   9.004   5.038   7.517
26238SOL     OW82507   7.912   5.467   7.771
26238SOL    HW182508   7.945   5.506   7.857
26238SOL    HW282509   7.988   5.460   7.706
26239SOL     OW82510   8.848   3.831   7.874
26239SOL    HW182511   8.824   3.794   7.784
26239SOL    HW282512   8.947   3.847   7.878
26240SOL     OW82513   7.697   5.509   8.689
26240SOL    HW182514   7.754   5.444   8.739
26240SOL    HW282515   7.681   5.476   8.596
26241SOL     OW82516   8.388   5.422   8.352
26241SOL    HW182517   8.468   5.365   8.373
26241SOL    HW282518   8.339   5.382   8.275
26242SOL     OW82519   7.830   4.424   7.928
26242SOL    HW182520   7.875   4.334   7.925
26242SOL    HW282521   7.736   4.413   7.961
26243SOL     OW82522   8.995   3.946   9.177
26243SOL    HW182523   8.990   3.983   9.269
26243SOL    HW282524   8.923   3.877   9.165
26244SOL     OW82525   8.062   3.846   7.565
26244SOL    HW182526   8.160   3.824   7.572
26244SOL    HW282527   8.031   3.829   7.472
26245SOL     OW82528   8.229   3.988   9.197
26245SOL    HW182529   8.296   3.927   9.240
26245SOL    HW282530   8.156   4.007   9.262
26246SOL     OW82531   8.336   5.238   8.643
26246SOL    HW182532   8.313   5.213   8.549
26246SOL    HW282533   8.397   5.169   8.682
26247SOL     OW82534   8.799   4.314   8.881
26247SOL    HW182535   8.827   4.271   8.966
26247SOL    HW282536   8.824   4.410   8.882
26248SOL     OW82537   8.251   5.126   8.372
26248SOL    HW182538   8.341   5.140   8.330
26248SOL    HW282539   8.180   5.128   8.301
26249SOL     OW82540   8.370   4.227   8.347
26249SOL    HW182541   8.345   4.218   8.251
26249SOL    HW282542   8.418   4.145   8.378
26250SOL     OW82543   7.987   3.788   7.960
26250SOL    HW182544   7.906   3.789   8.018
26250SOL    HW282545   7.990   3.871   7.905
26251SOL     OW82546   8.882   4.912   7.489
26251SOL    HW182547   8.914   4.836   7.546
26251SOL    HW282548   8.790   4.939   7.519
26252SOL     OW82549   7.745   3.759   7.619
26252SOL    HW182550   7.794   3.843   7.598
26252SOL    HW282551   7.807   3.694   7.664
26253SOL     OW82552   8.383   3.960   7.928
26253SOL    HW182553   8.335   4.001   7.850
26253SOL    HW282554   8.482   3.958   7.909
26254SOL     OW82555   8.524   4.407   8.912
26254SOL    HW182556   8.444   4.346   8.915
26254SOL    HW282557   8.605   4.354   8.888
26255SOL     OW82558   8.675   5.294   8.241
26255SOL    HW182559   8.696   5.368   8.176
26255SOL    HW282560   8.743   5.294   8.314
26256SOL     OW82561   7.907   4.876   8.189
26256SOL    HW182562   7.836   4.849   8.254
26256SOL    HW282563   7.881   4.848   8.096
26257SOL     OW82564   8.719   5.521   8.039
26257SOL    HW182565   8.763   5.585   7.975
26257SOL    HW282566   8.669   5.573   8.109
26258SOL     OW82567   8.480   4.273   7.464
26258SOL    HW182568   8.439   4.355   7.425
26258SOL    HW282569   8.544   4.299   7.537
26259SOL     OW82570   7.526   4.280   8.834
26259SOL    HW182571   7.618   4.279   8.793
26259SOL    HW282572   7.520   4.354   8.901
26260SOL     OW82573   8.009   3.946   8.595
26260SOL    HW182574   8.047   3.862   8.632
26260SOL    HW282575   7.921   3.965   8.639
26261SOL     OW82576   8.314   4.178   8.090
26261SOL    HW182577   8.282   4.250   8.028
26261SOL    HW282578   8.338   4.097   8.037
26262SOL     OW82579   8.465   3.763   8.201
26262SOL    HW182580   8.393   3.768   8.132
26262SOL    HW282581   8.441   3.694   8.270
26263SOL     OW82582   8.877   4.897   8.315
26263SOL    HW182583   8.822   4.813   8.308
26263SOL    HW282584   8.903   4.926   8.223
26264SOL     OW82585   8.914   4.314   8.440
26264SOL    HW182586   8.884   4.219   8.447
26264SOL    HW282587   8.987   4.330   8.506
26265SOL     OW82588   9.305   4.557   7.825
26265SOL    HW182589   9.347   4.493   7.889
26265SOL    HW282590   9.267   4.506   7.747
26266SOL     OW82591   7.936   5.109   7.622
26266SOL    HW182592   7.849   5.094   7.669
26266SOL    HW282593   7.919   5.135   7.527
26267SOL     OW82594   9.112   5.004   8.105
26267SOL    HW182595   9.211   5.012   8.119
26267SOL    HW282596   9.067   5.088   8.136
26268SOL     OW82597   8.838   4.299   7.526
26268SOL    HW182598   8.784   4.278   7.607
26268SOL    HW282599   8.929   4.258   7.535
26269SOL     OW82600   7.975   3.980   7.776
26269SOL    HW182601   8.002   3.921   7.701
26269SOL    HW282602   7.975   4.075   7.745
26270SOL     OW82603   9.202   4.947   9.036
26270SOL    HW182604   9.293   4.908   9.023
26270SOL    HW282605   9.210   5.043   9.060
26271SOL     OW82606   8.512   5.071   8.788
26271SOL    HW182607   8.432   5.048   8.843
26271SOL    HW282608   8.595   5.045   8.837
26272SOL     OW82609   9.040   5.353   9.073
26272SOL    HW182610   9.067   5.387   8.983
26272SOL    HW282611   9.119   5.315   9.119
26273SOL     OW82612   8.559   4.919   8.548
26273SOL    HW182613   8.519   4.963   8.629
26273SOL    HW282614   8.518   4.956   8.465
26274SOL     OW82615   9.086   4.823   8.527
26274SOL    HW182616   9.091   4.904   8.586
26274SOL    HW282617   9.000   4.825   8.476
26275SOL     OW82618   8.363   3.813   8.850
26275SOL    HW182619   8.388   3.793   8.755
26275SOL    HW282620   8.435   3.869   8.892
26276SOL     OW82621   8.428   4.840   9.167
26276SOL    HW182622   8.329   4.846   9.177
26276SOL    HW282623   8.451   4.760   9.111
26277SOL     OW82624   8.153   4.774   7.816
26277SOL    HW182625   8.139   4.781   7.915
26277SOL    HW282626   8.237   4.723   7.798
26278SOL     OW82627   7.858   4.537   8.699
26278SOL    HW182628   7.944   4.549   8.749
26278SOL    HW282629   7.816   4.450   8.726
26279SOL     OW82630   8.722   4.110   8.710
26279SOL    HW182631   8.743   4.184   8.774
26279SOL    HW282632   8.633   4.127   8.667
26280SOL     OW82633   7.512   5.288   8.779
26280SOL    HW182634   7.466   5.370   8.745
26280SOL    HW282635   7.610   5.307   8.788
26281SOL     OW82636   7.815   4.824   7.949
26281SOL    HW182637   7.808   4.907   7.893
26281SOL    HW282638   7.819   4.744   7.889
26282SOL     OW82639   8.014   4.261   8.313
26282SOL    HW182640   8.026   4.327   8.239
26282SOL    HW282641   8.060   4.295   8.396
26283SOL     OW82642   8.700   5.072   7.836
26283SOL    HW182643   8.750   5.149   7.876
26283SOL    HW282644   8.605   5.074   7.868
26284SOL     OW82645   8.720   5.169   8.590
26284SOL    HW182646   8.767   5.182   8.677
26284SOL    HW282647   8.654   5.095   8.599
26285SOL     OW82648   9.030   4.363   7.920
26285SOL    HW182649   8.999   4.424   7.993
26285SOL    HW282650   9.080   4.415   7.851
26286SOL     OW82651   7.802   5.234   8.777
26286SOL    HW182652   7.781   5.190   8.690
26286SOL    HW282653   7.899   5.260   8.780
26287SOL     OW82654   7.850   4.475   9.046
26287SOL    HW182655   7.918   4.530   8.999
26287SOL    HW282656   7.890   4.387   9.073
26288SOL     OW82657   9.035   4.503   9.118
26288SOL    HW182658   8.943   4.541   9.113
26288SOL    HW282659   9.095   4.550   9.053
26289SOL     OW82660   8.461   3.829   9.218
26289SOL    HW182661   8.467   3.914   9.166
26289SOL    HW282662   8.493   3.753   9.161
26290SOL     OW82663   7.952   3.774   9.188
26290SOL    HW182664   7.910   3.717   9.118
26290SOL    HW282665   7.886   3.843   9.220
26291SOL     OW82666   8.021   4.594   8.477
26291SOL    HW182667   8.065   4.683   8.468
26291SOL    HW282668   7.958   4.594   8.554
26292SOL     OW82669   8.808   4.586   8.493
26292SOL    HW182670   8.733   4.586   8.427
26292SOL    HW282671   8.845   4.494   8.502
26293SOL     OW82672   8.657   4.249   7.723
26293SOL    HW182673   8.670   4.165   7.777
26293SOL    HW282674   8.628   4.323   7.783
26294SOL     OW82675   7.755   3.937   8.679
26294SOL    HW182676   7.732   3.974   8.769
26294SOL    HW282677   7.725   3.842   8.673
26295SOL     OW82678   7.485   5.034   8.730
26295SOL    HW182679   7.538   4.985   8.798
26295SOL    HW282680   7.507   5.132   8.735
26296SOL     OW82681   8.180   4.358   8.512
26296SOL    HW182682   8.239   4.332   8.436
26296SOL    HW282683   8.152   4.454   8.501
26297SOL     OW82684   9.176   4.659   9.302
26297SOL    HW182685   9.130   4.652   9.213
26297SOL    HW282686   9.114   4.703   9.368
26298SOL     OW82687   7.755   3.787   8.066
26298SOL    HW182688   7.744   3.881   8.099
26298SOL    HW282689   7.750   3.724   8.143
26299SOL     OW82690   9.070   4.091   7.822
26299SOL    HW182691   9.072   4.015   7.886
26299SOL    HW282692   9.022   4.168   7.862
26300SOL     OW82693   8.471   4.490   8.414
26300SOL    HW182694   8.486   4.511   8.510
26300SOL    HW282695   8.441   4.395   8.405
26301SOL     OW82696   8.428   5.297   9.148
26301SOL    HW182697   8.408   5.341   9.060
26301SOL    HW282698   8.467   5.206   9.132
26302SOL     OW82699   9.307   5.242   9.053
26302SOL    HW182700   9.321   5.269   8.958
26302SOL    HW282701   9.390   5.264   9.106
26303SOL     OW82702   7.798   4.622   9.252
26303SOL    HW182703   7.874   4.666   9.300
26303SOL    HW282704   7.833   4.575   9.170
26304SOL     OW82705   8.988   3.998   7.573
26304SOL    HW182706   8.927   3.923   7.596
26304SOL    HW282707   9.010   4.050   7.656
26305SOL     OW82708   8.516   5.057   8.297
26305SOL    HW182709   8.523   4.973   8.242
26305SOL    HW282710   8.578   5.126   8.261
26306SOL     OW82711   7.767   4.534   8.397
26306SOL    HW182712   7.860   4.570   8.402
26306SOL    HW282713   7.761   4.449   8.449
26307SOL     OW82714   7.787   4.233   8.454
26307SOL    HW182715   7.735   4.150   8.437
26307SOL    HW282716   7.864   4.238   8.390
26308SOL     OW82717   8.586   4.104   9.126
26308SOL    HW182718   8.541   4.167   9.190
26308SOL    HW282719   8.679   4.135   9.109
26309SOL     OW82720   8.608   3.931   8.925
26309SOL    HW182721   8.608   3.995   9.002
26309SOL    HW282722   8.636   3.979   8.842
26310SOL     OW82723   7.456   5.050   7.648
26310SOL    HW182724   7.363   5.071   7.617
26310SOL    HW282725   7.466   4.951   7.661
26311SOL     OW82726   7.536   5.525   8.375
26311SOL    HW182727   7.494   5.439   8.348
26311SOL    HW282728   7.630   5.528   8.341
26312SOL     OW82729   7.952   5.292   8.358
26312SOL    HW182730   8.018   5.366   8.367
26312SOL    HW282731   7.996   5.213   8.316
26313SOL     OW82732   8.450   4.520   8.686
26313SOL    HW182733   8.491   4.488   8.772
26313SOL    HW282734   8.354   4.493   8.683
26314SOL     OW82735   7.488   4.268   8.562
26314SOL    HW182736   7.573   4.235   8.521
26314SOL    HW282737   7.501   4.283   8.660
26315SOL     OW82738   7.637   4.244   9.170
26315SOL    HW182739   7.696   4.204   9.100
26315SOL    HW282740   7.579   4.315   9.129
26316SOL     OW82741   8.817   4.674   9.108
26316SOL    HW182742   8.856   4.763   9.128
26316SOL    HW282743   8.827   4.654   9.011
26317SOL     OW82744   8.263   4.296   7.773
26317SOL    HW182745   8.270   4.207   7.727
26317SOL    HW282746   8.169   4.330   7.765
26318SOL     OW82747   9.105   4.328   8.654
26318SOL    HW182748   9.067   4.259   8.716
26318SOL    HW282749   9.187   4.292   8.610
26319SOL     OW82750   7.700   5.288   9.192
26319SOL    HW182751   7.670   5.345   9.268
26319SOL    HW282752   7.693   5.191   9.218
26320SOL     OW82753   8.119   4.188   8.717
26320SOL    HW182754   8.085   4.099   8.687
26320SOL    HW282755   8.145   4.242   8.637
26321SOL     OW82756   8.378   5.402   8.913
26321SOL    HW182757   8.354   5.384   8.818
26321SOL    HW282758   8.408   5.496   8.923
26322SOL     OW82759   7.921   4.224   7.639
26322SOL    HW182760   7.982   4.304   7.643
26322SOL    HW282761   7.826   4.255   7.646
26323SOL     OW82762   7.607   4.861   8.914
26323SOL    HW182763   7.629   4.800   8.990
26323SOL    HW282764   7.617   4.812   8.828
26324SOL     OW82765   8.795   4.783   8.682
26324SOL    HW182766   8.819   4.720   8.608
26324SOL    HW282767   8.705   4.823   8.664
26325SOL     OW82768   8.750   4.579   7.757
26325SOL    HW182769   8.664   4.548   7.799
26325SOL    HW282770   8.746   4.565   7.658
26326SOL     OW82771   9.207   5.471   8.602
26326SOL    HW182772   9.268   5.501   8.529
26326SOL    HW282773   9.169   5.382   8.580
26327SOL     OW82774   8.700   5.455   8.576
26327SOL    HW182775   8.784   5.460   8.522
26327SOL    HW282776   8.677   5.359   8.594
26328SOL     OW82777   7.531   4.982   8.470
26328SOL    HW182778   7.526   4.981   8.570
26328SOL    HW282779   7.448   4.941   8.432
26329SOL     OW82780   8.136   5.386   9.164
26329SOL    HW182781   8.080   5.467   9.173
26329SOL    HW282782   8.188   5.390   9.078
26330SOL     OW82783   9.174   3.859   7.971
26330SOL    HW182784   9.247   3.842   7.904
26330SOL    HW282785   9.143   3.772   8.009
26331SOL     OW82786   8.836   5.297   7.925
26331SOL    HW182787   8.903   5.309   7.851
26331SOL    HW282788   8.796   5.386   7.948
26332SOL     OW82789   7.578   5.518   9.299
26332SOL    HW182790   7.537   5.444   9.352
26332SOL    HW282791   7.642   5.569   9.357
26333SOL     OW82792   8.728   4.651   8.120
26333SOL    HW182793   8.788   4.570   8.122
26333SOL    HW282794   8.768   4.720   8.060
26334SOL     OW82795   8.278   4.997   8.870
26334SOL    HW182796   8.273   5.030   8.965
26334SOL    HW282797   8.192   5.016   8.824
26335SOL     OW82798   8.120   5.340   7.602
26335SOL    HW182799   8.129   5.350   7.503
26335SOL    HW282800   8.080   5.251   7.623
26336SOL     OW82801   9.098   5.444   8.842
26336SOL    HW182802   9.151   5.454   8.758
26336SOL    HW282803   9.071   5.534   8.876
26337SOL     OW82804   9.289   3.899   8.411
26337SOL    HW182805   9.328   3.814   8.375
26337SOL    HW282806   9.191   3.901   8.392
26338SOL     OW82807   7.711   4.050   8.168
26338SOL    HW182808   7.632   4.101   8.134
26338SOL    HW282809   7.702   4.035   8.266
26339SOL     OW82810   8.642   5.336   7.479
26339SOL    HW182811   8.648   5.243   7.516
26339SOL    HW282812   8.583   5.336   7.399
26340SOL     OW82813   8.270   4.726   8.820
26340SOL    HW182814   8.310   4.725   8.728
26340SOL    HW282815   8.280   4.818   8.860
26341SOL     OW82816   8.364   4.634   7.739
26341SOL    HW182817   8.427   4.672   7.671
26341SOL    HW282818   8.404   4.551   7.778
26342SOL     OW82819   8.952   5.331   7.492
26342SOL    HW182820   8.860   5.368   7.499
26342SOL    HW282821   8.990   5.351   7.402
26343SOL     OW82822   7.820   5.012   8.938
26343SOL    HW182823   7.807   5.105   8.904
26343SOL    HW282824   7.736   4.960   8.925
26344SOL     OW82825   9.062   5.016   8.737
26344SOL    HW182826   9.122   5.019   8.817
26344SOL    HW282827   8.987   5.080   8.750
26345SOL     OW82828   8.487   4.822   8.144
26345SOL    HW182829   8.417   4.775   8.198
26345SOL    HW282830   8.546   4.754   8.101
26346SOL     OW82831   8.462   3.960   8.419
26346SOL    HW182832   8.454   3.924   8.326
26346SOL    HW282833   8.460   3.884   8.484
26347SOL     OW82834   8.038   5.211   7.939
26347SOL    HW182835   8.080   5.153   7.869
26347SOL    HW282836   7.994   5.290   7.895
26348SOL     OW82837   9.157   4.109   8.829
26348SOL    HW182838   9.230   4.178   8.833
26348SOL    HW282839   9.185   4.034   8.770
26349SOL     OW82840   7.703   5.072   7.738
26349SOL    HW182841   7.607   5.073   7.711
26349SOL    HW282842   7.715   5.125   7.822
26350SOL     OW82843   7.553   4.737   9.174
26350SOL    HW182844   7.476   4.704   9.228
26350SOL    HW282845   7.638   4.707   9.216
26351SOL     OW82846   8.120   3.927   8.937
26351SOL    HW182847   8.210   3.911   8.897
26351SOL    HW282848   8.128   3.932   9.036
26352SOL     OW82849   7.523   4.069   7.481
26352SOL    HW182850   7.431   4.041   7.452
26352SOL    HW282851   7.554   4.146   7.425
26353SOL     OW82852   8.888   4.580   8.846
26353SOL    HW182853   8.831   4.632   8.783
26353SOL    HW282854   8.984   4.592   8.822
26354SOL     OW82855   7.520   3.890   7.766
26354SOL    HW182856   7.503   3.973   7.712
26354SOL    HW282857   7.610   3.853   7.744
26355SOL     OW82858   8.631   5.059   7.567
26355SOL    HW182859   8.532   5.048   7.569
26355SOL    HW282860   8.665   5.074   7.660
26356SOL     OW82861   8.061   4.566   8.879
26356SOL    HW182862   8.117   4.647   8.862
26356SOL    HW282863   8.120   4.486   8.882
26357SOL     OW82864   8.941   5.491   8.407
26357SOL    HW182865   8.974   5.555   8.338
26357SOL    HW282866   9.007   5.485   8.482
26358SOL     OW82867   8.164   4.289   9.156
26358SOL    HW182868   8.183   4.354   9.230
26358SOL    HW282869   8.224   4.209   9.165
26359SOL     OW82870   8.898   4.944   9.081
26359SOL    HW182871   8.889   4.934   9.180
26359SOL    HW282872   8.994   4.937   9.055
26360SOL     OW82873   7.838   5.465   9.008
26360SOL    HW182874   7.747   5.506   9.006
26360SOL    HW282875   7.831   5.371   9.040
26361SOL     OW82876   9.122   4.607   8.702
26361SOL    HW182877   9.095   4.518   8.665
26361SOL    HW282878   9.123   4.675   8.629
26362SOL     OW82879   8.673   4.049   7.897
26362SOL    HW182880   8.738   3.975   7.886
26362SOL    HW282881   8.693   4.099   7.981
26363SOL     OW82882   8.042   4.469   8.100
26363SOL    HW182883   8.092   4.554   8.081
26363SOL    HW282884   7.954   4.471   8.052
26364SOL     OW82885   9.225   4.066   9.090
26364SOL    HW182886   9.208   4.097   8.996
26364SOL    HW282887   9.141   4.029   9.128
26365SOL     OW82888   9.178   4.658   8.965
26365SOL    HW182889   9.216   4.749   8.980
26365SOL    HW282890   9.170   4.641   8.866
26366SOL     OW82891   8.307   5.098   7.464
26366SOL    HW182892   8.261   5.113   7.552
26366SOL    HW282893   8.351   5.183   7.434
26367SOL     OW82894   8.109   5.514   8.401
26367SOL    HW182895   8.063   5.602   8.388
26367SOL    HW282896   8.208   5.526   8.394
26368SOL     OW82897   8.307   4.680   8.309
26368SOL    HW182898   8.361   4.611   8.357
26368SOL    HW282899   8.275   4.749   8.375
26369SOL     OW82900   8.531   4.708   7.535
26369SOL    HW182901   8.508   4.761   7.453
26369SOL    HW282902   8.612   4.652   7.516
26370SOL     OW82903   9.309   5.293   8.299
26370SOL    HW182904   9.238   5.281   8.229
26370SOL    HW282905   9.310   5.214   8.359
26371SOL     OW82906   7.669   5.038   9.292
26371SOL    HW182907   7.604   4.965   9.271
26371SOL    HW282908   7.673   5.052   9.390
26372SOL     OW82909   7.527   4.964   8.101
26372SOL    HW182910   7.526   4.917   8.189
26372SOL    HW282911   7.609   4.936   8.050
26373SOL     OW82912   8.120   5.115   9.072
26373SOL    HW182913   8.042   5.065   9.110
26373SOL    HW282914   8.117   5.210   9.103
26374SOL     OW82915   9.272   3.916   8.675
26374SOL    HW182916   9.268   3.826   8.719
26374SOL    HW282917   9.275   3.905   8.576
26375SOL     OW82918   7.876   4.148   7.968
26375SOL    HW182919   7.906   4.076   7.906
26375SOL    HW282920   7.837   4.108   8.051
26376SOL     OW82921   9.153   5.211   8.552
26376SOL    HW182922   9.060   5.186   8.525
26376SOL    HW282923   9.179   5.161   8.634
26377SOL     OW82924   7.765   4.271   8.728
26377SOL    HW182925   7.803   4.212   8.800
26377SOL    HW282926   7.805   4.245   8.640
26378SOL     OW82927   8.260   5.310   8.135
26378SOL    HW182928   8.292   5.320   8.041
26378SOL    HW282929   8.181   5.248   8.137
26379SOL     OW82930   8.872   3.938   8.560
26379SOL    HW182931   8.924   3.873   8.615
26379SOL    HW282932   8.823   4.001   8.621
26380SOL     OW82933   8.449   3.758   8.602
26380SOL    HW182934   8.386   3.686   8.571
26380SOL    HW282935   8.542   3.722   8.602
26381SOL     OW82936   8.218   5.054   7.749
26381SOL    HW182937   8.172   4.967   7.766
26381SOL    HW282938   8.309   5.051   7.790
26382SOL     OW82939   8.066   5.291   8.732
26382SOL    HW182940   8.061   5.373   8.789
26382SOL    HW282941   8.155   5.288   8.687
26383SOL     OW82942   8.800   3.776   7.616
26383SOL    HW182943   8.835   3.735   7.532
26383SOL    HW282944   8.710   3.738   7.636
26384SOL     OW82945   8.748   4.177   8.139
26384SOL    HW182946   8.689   4.257   8.143
26384SOL    HW282947   8.763   4.142   8.232
26385SOL     OW82948   9.041   3.945   8.330
26385SOL    HW182949   8.957   3.944   8.384
26385SOL    HW282950   9.043   4.028   8.274
26386SOL     OW82951   7.487   4.801   7.748
26386SOL    HW182952   7.586   4.790   7.739
26386SOL    HW282953   7.447   4.715   7.780
26387SOL     OW82954   8.323   5.370   7.785
26387SOL    HW182955   8.246   5.335   7.731
26387SOL    HW282956   8.291   5.441   7.847
26388SOL     OW82957   7.678   4.352   9.423
26388SOL    HW182958   7.585   4.350   9.460
26388SOL    HW282959   7.679   4.313   9.331
26389SOL     OW82960   9.203   4.331   9.541
26389SOL    HW182961   9.191   4.318   9.442
26389SOL    HW282962   9.173   4.250   9.590
26390SOL     OW82963   7.679   5.437   9.793
26390SOL    HW182964   7.713   5.514   9.847
26390SOL    HW282965   7.723   5.437   9.703
26391SOL     OW82966   7.678   5.158   9.848
26391SOL    HW182967   7.652   5.254   9.848
26391SOL    HW282968   7.607   5.104   9.893
26392SOL     OW82969   8.054   4.688   9.433
26392SOL    HW182970   8.061   4.772   9.379
26392SOL    HW282971   8.100   4.701   9.521
26393SOL     OW82972   7.570   4.367   9.873
26393SOL    HW182973   7.525   4.279   9.890
26393SOL    HW282974   7.569   4.421   9.957
26394SOL     OW82975   9.290   5.491   9.669
26394SOL    HW182976   9.344   5.462   9.749
26394SOL    HW282977   9.320   5.581   9.640
26395SOL     OW82978   7.475   5.320   9.427
26395SOL    HW182979   7.456   5.224   9.448
26395SOL    HW282980   7.442   5.378   9.502
26396SOL     OW82981   9.137   4.646   9.922
26396SOL    HW182982   9.232   4.617   9.930
26396SOL    HW282983   9.129   4.711   9.847
26397SOL     OW82984   9.089   4.832   9.742
26397SOL    HW182985   9.175   4.834   9.690
26397SOL    HW282986   9.103   4.879   9.830
26398SOL     OW82987   8.061   5.089  10.036
26398SOL    HW182988   8.012   5.002  10.045
26398SOL    HW282989   8.038   5.132   9.949
26399SOL     OW82990   8.257   3.728   9.812
26399SOL    HW182991   8.297   3.819   9.803
26399SOL    HW282992   8.157   3.736   9.818
26400SOL     OW82993   8.973   4.723   9.500
26400SOL    HW182994   8.910   4.647   9.513
26400SOL    HW282995   9.021   4.741   9.586
26401SOL     OW82996   8.046   4.453   9.580
26401SOL    HW182997   8.070   4.522   9.512
26401SOL    HW282998   7.968   4.486   9.634
26402SOL     OW82999   9.024   5.386   9.617
26402SOL    HW183000   9.113   5.432   9.620
26402SOL    HW283001   9.003   5.362   9.522
26403SOL     OW83002   8.489   4.425   9.739
26403SOL    HW183003   8.515   4.421   9.835
26403SOL    HW283004   8.404   4.374   9.725
26404SOL     OW83005   7.524   4.535  10.099
26404SOL    HW183006   7.623   4.523  10.108
26404SOL    HW283007   7.500   4.630  10.120
26405SOL     OW83008   8.313   4.072   9.505
26405SOL    HW183009   8.372   4.135   9.456
26405SOL    HW283010   8.332   3.978   9.476
26406SOL     OW83011   8.810   4.868   9.855
26406SOL    HW183012   8.893   4.839   9.807
26406SOL    HW283013   8.761   4.935   9.799
26407SOL     OW83014   8.456   5.180   9.787
26407SOL    HW183015   8.410   5.252   9.735
26407SOL    HW283016   8.452   5.200   9.885
26408SOL     OW83017   7.799   5.525  10.163
26408SOL    HW183018   7.849   5.439  10.169
26408SOL    HW283019   7.864   5.602  10.160
26409SOL     OW83020   7.769   4.667   9.552
26409SOL    HW183021   7.851   4.706   9.510
26409SOL    HW283022   7.742   4.585   9.503
26410SOL     OW83023   9.080   5.101   9.391
26410SOL    HW183024   9.048   5.195   9.381
26410SOL    HW283025   9.004   5.038   9.379
26411SOL     OW83026   7.912   5.467   9.633
26411SOL    HW183027   7.945   5.506   9.719
26411SOL    HW283028   7.988   5.460   9.568
26412SOL     OW83029   7.830   4.424   9.790
26412SOL    HW183030   7.875   4.334   9.787
26412SOL    HW283031   7.736   4.413   9.823
26413SOL     OW83032   8.062   3.846   9.427
26413SOL    HW183033   8.160   3.824   9.434
26413SOL    HW283034   8.031   3.829   9.334
26414SOL     OW83035   7.987   3.788   9.822
26414SOL    HW183036   7.906   3.789   9.880
26414SOL    HW283037   7.990   3.871   9.767
26415SOL     OW83038   8.882   4.912   9.351
26415SOL    HW183039   8.914   4.836   9.408
26415SOL    HW283040   8.790   4.939   9.381
26416SOL     OW83041   7.745   3.759   9.481
26416SOL    HW183042   7.794   3.843   9.460
26416SOL    HW283043   7.807   3.694   9.526
26417SOL     OW83044   8.383   3.960   9.790
26417SOL    HW183045   8.335   4.001   9.712
26417SOL    HW283046   8.482   3.958   9.771
26418SOL     OW83047   7.907   4.876  10.051
26418SOL    HW183048   7.836   4.849  10.116
26418SOL    HW283049   7.881   4.848   9.958
26419SOL     OW83050   8.719   5.521   9.901
26419SOL    HW183051   8.763   5.585   9.837
26419SOL    HW283052   8.669   5.573   9.971
26420SOL     OW83053   8.480   4.273   9.326
26420SOL    HW183054   8.439   4.355   9.287
26420SOL    HW283055   8.544   4.299   9.399
26421SOL     OW83056   8.314   4.178   9.952
26421SOL    HW183057   8.282   4.250   9.890
26421SOL    HW283058   8.338   4.097   9.899
26422SOL     OW83059   9.305   4.557   9.687
26422SOL    HW183060   9.347   4.493   9.751
26422SOL    HW283061   9.267   4.506   9.609
26423SOL     OW83062   7.936   5.109   9.484
26423SOL    HW183063   7.849   5.094   9.531
26423SOL    HW283064   7.919   5.135   9.389
26424SOL     OW83065   8.838   4.299   9.388
26424SOL    HW183066   8.784   4.278   9.469
26424SOL    HW283067   8.929   4.258   9.397
26425SOL     OW83068   7.975   3.980   9.638
26425SOL    HW183069   8.002   3.921   9.563
26425SOL    HW283070   7.975   4.075   9.607
26426SOL     OW83071   8.153   4.774   9.678
26426SOL    HW183072   8.139   4.781   9.777
26426SOL    HW283073   8.237   4.723   9.660
26427SOL     OW83074   7.815   4.824   9.811
26427SOL    HW183075   7.808   4.907   9.755
26427SOL    HW283076   7.819   4.744   9.751
26428SOL     OW83077   8.700   5.072   9.698
26428SOL    HW183078   8.750   5.149   9.738
26428SOL    HW283079   8.605   5.074   9.730
26429SOL     OW83080   9.030   4.363   9.782
26429SOL    HW183081   8.999   4.424   9.855
26429SOL    HW283082   9.080   4.415   9.713
26430SOL     OW83083   8.657   4.249   9.585
26430SOL    HW183084   8.670   4.165   9.639
26430SOL    HW283085   8.628   4.323   9.645
26431SOL     OW83086   7.755   3.787   9.928
26431SOL    HW183087   7.744   3.881   9.961
26431SOL    HW283088   7.750   3.724  10.005
26432SOL     OW83089   9.070   4.091   9.684
26432SOL    HW183090   9.072   4.015   9.748
26432SOL    HW283091   9.022   4.168   9.724
26433SOL     OW83092   8.988   3.998   9.435
26433SOL    HW183093   8.927   3.923   9.458
26433SOL    HW283094   9.010   4.050   9.518
26434SOL     OW83095   8.751   4.562   9.352
26434SOL    HW183096   8.785   4.469   9.367
26434SOL    HW283097   8.769   4.589   9.257
26435SOL     OW83098   7.456   5.050   9.510
26435SOL    HW183099   7.363   5.071   9.479
26435SOL    HW283100   7.466   4.951   9.523
26436SOL     OW83101   8.263   4.296   9.635
26436SOL    HW183102   8.270   4.207   9.589
26436SOL    HW283103   8.169   4.330   9.627
26437SOL     OW83104   7.921   4.224   9.501
26437SOL    HW183105   7.982   4.304   9.505
26437SOL    HW283106   7.826   4.255   9.508
26438SOL     OW83107   8.750   4.579   9.619
26438SOL    HW183108   8.664   4.548   9.661
26438SOL    HW283109   8.746   4.565   9.520
26439SOL     OW83110   9.174   3.859   9.833
26439SOL    HW183111   9.247   3.842   9.766
26439SOL    HW283112   9.143   3.772   9.871
26440SOL     OW83113   8.836   5.297   9.787
26440SOL    HW183114   8.903   5.309   9.713
26440SOL    HW283115   8.796   5.386   9.810
26441SOL     OW83116   8.120   5.340   9.464
26441SOL    HW183117   8.129   5.350   9.365
26441SOL    HW283118   8.080   5.251   9.485
26442SOL     OW83119   8.642   5.336   9.341
26442SOL    HW183120   8.648   5.243   9.378
26442SOL    HW283121   8.583   5.336   9.261
26443SOL     OW83122   8.364   4.634   9.601
26443SOL    HW183123   8.427   4.672   9.533
26443SOL    HW283124   8.404   4.551   9.640
26444SOL     OW83125   8.952   5.331   9.354
26444SOL    HW183126   8.860   5.368   9.361
26444SOL    HW283127   8.990   5.351   9.264
26445SOL     OW83128   8.038   5.211   9.801
26445SOL    HW183129   8.080   5.153   9.731
26445SOL    HW283130   7.994   5.290   9.757
26446SOL     OW83131   7.703   5.072   9.600
26446SOL    HW183132   7.607   5.073   9.573
26446SOL    HW283133   7.715   5.125   9.684
26447SOL     OW83134   7.523   4.069   9.343
26447SOL    HW183135   7.431   4.041   9.314
26447SOL    HW283136   7.554   4.146   9.287
26448SOL     OW83137   7.520   3.890   9.628
26448SOL    HW183138   7.503   3.973   9.574
26448SOL    HW283139   7.610   3.853   9.606
26449SOL     OW83140   8.631   5.059   9.429
26449SOL    HW183141   8.532   5.048   9.431
26449SOL    HW283142   8.665   5.074   9.522
26450SOL     OW83143   8.673   4.049   9.759
26450SOL    HW183144   8.738   3.975   9.748
26450SOL    HW283145   8.693   4.099   9.843
26451SOL     OW83146   8.042   4.469   9.962
26451SOL    HW183147   8.092   4.554   9.943
26451SOL    HW283148   7.954   4.471   9.914
26452SOL     OW83149   8.307   5.098   9.326
26452SOL    HW183150   8.261   5.113   9.414
26452SOL    HW283151   8.351   5.183   9.296
26453SOL     OW83152   8.531   4.708   9.397
26453SOL    HW183153   8.508   4.761   9.315
26453SOL    HW283154   8.612   4.652   9.378
26454SOL     OW83155   7.527   4.964   9.963
26454SOL    HW183156   7.526   4.917  10.051
26454SOL    HW283157   7.609   4.936   9.912
26455SOL     OW83158   7.876   4.148   9.830
26455SOL    HW183159   7.906   4.076   9.768
26455SOL    HW283160   7.837   4.108   9.913
26456SOL     OW83161   8.218   5.054   9.611
26456SOL    HW183162   8.172   4.967   9.628
26456SOL    HW283163   8.309   5.051   9.652
26457SOL     OW83164   8.800   3.776   9.478
26457SOL    HW183165   8.835   3.735   9.394
26457SOL    HW283166   8.710   3.738   9.498
26458SOL     OW83167   7.487   4.801   9.610
26458SOL    HW183168   7.586   4.790   9.601
26458SOL    HW283169   7.447   4.715   9.642
26459SOL     OW83170   8.323   5.370   9.647
26459SOL    HW183171   8.246   5.335   9.593
26459SOL    HW283172   8.291   5.441   9.709
26460SOL     OW83173   7.678   6.214   0.113
26460SOL    HW183174   7.585   6.212   0.150
26460SOL    HW283175   7.679   6.175   0.021
26461SOL     OW83176   7.673   5.861   0.996
26461SOL    HW183177   7.708   5.844   1.088
26461SOL    HW283178   7.585   5.816   0.984
26462SOL     OW83179   7.467   5.954   0.647
26462SOL    HW183180   7.385   5.997   0.686
26462SOL    HW283181   7.439   5.881   0.584
26463SOL     OW83182   8.017   6.861   1.165
26463SOL    HW183183   7.924   6.854   1.128
26463SOL    HW283184   8.028   6.950   1.209
26464SOL     OW83185   9.003   7.097   0.703
26464SOL    HW183186   8.946   7.081   0.784
26464SOL    HW283187   8.944   7.107   0.623
26465SOL     OW83188   8.583   6.289   0.717
26465SOL    HW183189   8.640   6.367   0.692
26465SOL    HW283190   8.523   6.315   0.793
26466SOL     OW83191   9.203   6.193   0.231
26466SOL    HW183192   9.191   6.180   0.132
26466SOL    HW283193   9.173   6.112   0.280
26467SOL     OW83194   8.216   6.730   1.023
26467SOL    HW183195   8.138   6.747   1.083
26467SOL    HW283196   8.250   6.817   0.987
26468SOL     OW83197   8.298   6.384   1.823
26468SOL    HW183198   8.294   6.460   1.888
26468SOL    HW283199   8.320   6.420   1.732
26469SOL     OW83200   8.133   6.598   0.665
26469SOL    HW183201   8.202   6.582   0.735
26469SOL    HW283202   8.060   6.655   0.703
26470SOL     OW83203   8.134   6.747   1.803
26470SOL    HW183204   8.194   6.826   1.817
26470SOL    HW283205   8.048   6.778   1.762
26471SOL     OW83206   7.783   7.021   1.061
26471SOL    HW183207   7.705   6.990   1.008
26471SOL    HW283208   7.841   7.079   1.004
26472SOL     OW83209   8.908   7.091   1.339
26472SOL    HW183210   8.932   7.185   1.365
26472SOL    HW283211   8.892   7.037   1.421
26473SOL     OW83212   7.886   5.978   1.499
26473SOL    HW183213   7.968   5.922   1.508
26473SOL    HW283214   7.805   5.920   1.503
26474SOL     OW83215   9.051   6.033   0.737
26474SOL    HW183216   8.977   6.079   0.687
26474SOL    HW283217   9.102   6.101   0.790
26475SOL     OW83218   7.679   7.299   0.483
26475SOL    HW183219   7.713   7.376   0.537
26475SOL    HW283220   7.723   7.299   0.393
26476SOL     OW83221   8.575   6.927   1.690
26476SOL    HW183222   8.622   6.927   1.778
26476SOL    HW283223   8.527   6.840   1.679
26477SOL     OW83224   7.678   7.020   0.538
26477SOL    HW183225   7.652   7.116   0.538
26477SOL    HW283226   7.607   6.966   0.583
26478SOL     OW83227   8.068   7.372   1.439
26478SOL    HW183228   7.976   7.355   1.474
26478SOL    HW283229   8.096   7.464   1.465
26479SOL     OW83230   8.054   6.550   0.123
26479SOL    HW183231   8.061   6.634   0.069
26479SOL    HW283232   8.100   6.563   0.211
26480SOL     OW83233   7.570   6.229   0.563
26480SOL    HW183234   7.525   6.141   0.580
26480SOL    HW283235   7.569   6.283   0.647
26481SOL     OW83236   9.290   7.353   0.359
26481SOL    HW183237   9.344   7.324   0.439
26481SOL    HW283238   9.320   7.443   0.330
26482SOL     OW83239   7.475   7.182   0.117
26482SOL    HW183240   7.456   7.086   0.138
26482SOL    HW283241   7.442   7.240   0.192
26483SOL     OW83242   9.137   6.508   0.612
26483SOL    HW183243   9.232   6.479   0.620
26483SOL    HW283244   9.129   6.573   0.537
26484SOL     OW83245   9.089   6.694   0.432
26484SOL    HW183246   9.175   6.696   0.380
26484SOL    HW283247   9.103   6.741   0.520
26485SOL     OW83248   7.561   6.323   1.597
26485SOL    HW183249   7.649   6.310   1.642
26485SOL    HW283250   7.548   6.420   1.575
26486SOL     OW83251   8.061   6.951   0.726
26486SOL    HW183252   8.012   6.864   0.735
26486SOL    HW283253   8.038   6.994   0.639
26487SOL     OW83254   8.741   6.814   1.423
26487SOL    HW183255   8.778   6.741   1.365
26487SOL    HW283256   8.793   6.819   1.508
26488SOL     OW83257   8.257   5.590   0.502
26488SOL    HW183258   8.297   5.681   0.493
26488SOL    HW283259   8.157   5.598   0.508
26489SOL     OW83260   7.645   6.562   1.264
26489SOL    HW183261   7.734   6.517   1.250
26489SOL    HW283262   7.572   6.497   1.245
26490SOL     OW83263   8.973   6.585   0.190
26490SOL    HW183264   8.910   6.509   0.203
26490SOL    HW283265   9.021   6.603   0.276
26491SOL     OW83266   8.635   7.378   1.616
26491SOL    HW183267   8.659   7.438   1.540
26491SOL    HW283268   8.642   7.283   1.586
26492SOL     OW83269   7.765   5.837   1.801
26492SOL    HW183270   7.836   5.908   1.807
26492SOL    HW283271   7.677   5.876   1.829
26493SOL     OW83272   8.914   7.003   0.953
26493SOL    HW183273   8.855   7.009   1.033
26493SOL    HW283274   8.899   6.915   0.907
26494SOL     OW83275   9.115   7.300   0.572
26494SOL    HW183276   9.074   7.277   0.484
26494SOL    HW283277   9.097   7.226   0.637
26495SOL     OW83278   8.046   6.315   0.270
26495SOL    HW183279   8.070   6.384   0.202
26495SOL    HW283280   7.968   6.348   0.324
26496SOL     OW83281   8.729   5.931   0.944
26496SOL    HW183282   8.643   5.881   0.931
26496SOL    HW283283   8.791   5.877   1.000
26497SOL     OW83284   9.024   7.248   0.307
26497SOL    HW183285   9.113   7.294   0.310
26497SOL    HW283286   9.003   7.224   0.212
26498SOL     OW83287   8.255   6.191   1.465
26498SOL    HW183288   8.208   6.188   1.554
26498SOL    HW283289   8.204   6.136   1.399
26499SOL     OW83290   8.842   6.055   1.674
26499SOL    HW183291   8.822   6.098   1.762
26499SOL    HW283292   8.920   5.993   1.683
26500SOL     OW83293   8.421   6.476   1.572
26500SOL    HW183294   8.467   6.392   1.543
26500SOL    HW283295   8.365   6.510   1.497
26501SOL     OW83296   8.439   5.996   1.242
26501SOL    HW183297   8.362   6.030   1.296
26501SOL    HW283298   8.405   5.945   1.163
26502SOL     OW83299   8.489   6.287   0.429
26502SOL    HW183300   8.515   6.283   0.525
26502SOL    HW283301   8.404   6.236   0.415
26503SOL     OW83302   7.578   7.407   1.571
26503SOL    HW183303   7.568   7.392   1.670
26503SOL    HW283304   7.492   7.443   1.535
26504SOL     OW83305   8.313   5.934   0.195
26504SOL    HW183306   8.372   5.997   0.146
26504SOL    HW283307   8.332   5.840   0.166
26505SOL     OW83308   9.167   6.171   1.831
26505SOL    HW183309   9.141   6.260   1.795
26505SOL    HW283310   9.165   6.103   1.758
26506SOL     OW83311   8.810   6.730   0.545
26506SOL    HW183312   8.893   6.701   0.497
26506SOL    HW283313   8.761   6.797   0.489
26507SOL     OW83314   7.998   5.782   0.885
26507SOL    HW183315   7.993   5.777   0.985
26507SOL    HW283316   8.000   5.878   0.856
26508SOL     OW83317   7.799   7.387   0.853
26508SOL    HW183318   7.849   7.301   0.859
26508SOL    HW283319   7.864   7.464   0.850
26509SOL     OW83320   9.243   6.652   0.873
26509SOL    HW183321   9.181   6.637   0.797
26509SOL    HW283322   9.191   6.663   0.958
26510SOL     OW83323   8.675   7.136   1.506
26510SOL    HW183324   8.681   7.059   1.570
26510SOL    HW283325   8.623   7.110   1.426
26511SOL     OW83326   7.769   6.529   0.242
26511SOL    HW183327   7.851   6.568   0.200
26511SOL    HW283328   7.742   6.447   0.193
26512SOL     OW83329   8.906   6.321   0.728
26512SOL    HW183330   8.901   6.256   0.803
26512SOL    HW283331   8.986   6.380   0.741
26513SOL     OW83332   7.909   6.852   1.727
26513SOL    HW183333   7.859   6.853   1.641
26513SOL    HW283334   7.846   6.834   1.803
26514SOL     OW83335   7.650   5.871   1.498
26514SOL    HW183336   7.570   5.931   1.485
26514SOL    HW283337   7.640   5.822   1.584
26515SOL     OW83338   9.080   6.963   0.081
26515SOL    HW183339   9.048   7.057   0.071
26515SOL    HW283340   9.004   6.900   0.069
26516SOL     OW83341   7.912   7.329   0.323
26516SOL    HW183342   7.945   7.368   0.409
26516SOL    HW283343   7.988   7.322   0.258
26517SOL     OW83344   8.848   5.693   0.426
26517SOL    HW183345   8.824   5.656   0.336
26517SOL    HW283346   8.947   5.709   0.430
26518SOL     OW83347   7.697   7.371   1.241
26518SOL    HW183348   7.754   7.306   1.291
26518SOL    HW283349   7.681   7.338   1.148
26519SOL     OW83350   8.388   7.284   0.904
26519SOL    HW183351   8.468   7.227   0.925
26519SOL    HW283352   8.339   7.244   0.827
26520SOL     OW83353   7.830   6.286   0.480
26520SOL    HW183354   7.875   6.196   0.477
26520SOL    HW283355   7.736   6.275   0.513
26521SOL     OW83356   8.995   5.808   1.729
26521SOL    HW183357   8.990   5.845   1.821
26521SOL    HW283358   8.923   5.739   1.717
26522SOL     OW83359   8.062   5.708   0.117
26522SOL    HW183360   8.160   5.686   0.124
26522SOL    HW283361   8.031   5.691   0.024
26523SOL     OW83362   8.229   5.850   1.749
26523SOL    HW183363   8.296   5.789   1.792
26523SOL    HW283364   8.156   5.869   1.814
26524SOL     OW83365   8.336   7.100   1.195
26524SOL    HW183366   8.313   7.075   1.101
26524SOL    HW283367   8.397   7.031   1.234
26525SOL     OW83368   8.799   6.176   1.433
26525SOL    HW183369   8.827   6.133   1.518
26525SOL    HW283370   8.824   6.272   1.434
26526SOL     OW83371   8.251   6.988   0.924
26526SOL    HW183372   8.341   7.002   0.882
26526SOL    HW283373   8.180   6.990   0.853
26527SOL     OW83374   8.370   6.089   0.899
26527SOL    HW183375   8.345   6.080   0.803
26527SOL    HW283376   8.418   6.007   0.930
26528SOL     OW83377   7.987   5.650   0.512
26528SOL    HW183378   7.906   5.651   0.570
26528SOL    HW283379   7.990   5.733   0.457
26529SOL     OW83380   8.882   6.774   0.041
26529SOL    HW183381   8.914   6.698   0.098
26529SOL    HW283382   8.790   6.801   0.071
26530SOL     OW83383   8.383   5.822   0.480
26530SOL    HW183384   8.335   5.863   0.402
26530SOL    HW283385   8.482   5.820   0.461
26531SOL     OW83386   8.524   6.269   1.464
26531SOL    HW183387   8.444   6.208   1.467
26531SOL    HW283388   8.605   6.216   1.440
26532SOL     OW83389   7.907   6.738   0.741
26532SOL    HW183390   7.836   6.711   0.806
26532SOL    HW283391   7.881   6.710   0.648
26533SOL     OW83392   8.480   6.135   0.016
26533SOL    HW183393   8.439   6.217  -0.023
26533SOL    HW283394   8.544   6.161   0.089
26534SOL     OW83395   7.526   6.142   1.386
26534SOL    HW183396   7.618   6.141   1.345
26534SOL    HW283397   7.520   6.216   1.453
26535SOL     OW83398   8.009   5.808   1.147
26535SOL    HW183399   8.047   5.724   1.184
26535SOL    HW283400   7.921   5.827   1.191
26536SOL     OW83401   8.314   6.040   0.642
26536SOL    HW183402   8.282   6.112   0.580
26536SOL    HW283403   8.338   5.959   0.589
26537SOL     OW83404   8.465   5.625   0.753
26537SOL    HW183405   8.393   5.630   0.684
26537SOL    HW283406   8.441   5.556   0.822
26538SOL     OW83407   8.877   6.759   0.867
26538SOL    HW183408   8.822   6.675   0.860
26538SOL    HW283409   8.903   6.788   0.775
26539SOL     OW83410   8.914   6.176   0.992
26539SOL    HW183411   8.884   6.081   0.999
26539SOL    HW283412   8.987   6.192   1.058
26540SOL     OW83413   9.305   6.419   0.377
26540SOL    HW183414   9.347   6.355   0.441
26540SOL    HW283415   9.267   6.368   0.299
26541SOL     OW83416   7.936   6.971   0.174
26541SOL    HW183417   7.849   6.956   0.221
26541SOL    HW283418   7.919   6.997   0.079
26542SOL     OW83419   9.112   6.866   0.657
26542SOL    HW183420   9.211   6.874   0.671
26542SOL    HW283421   9.067   6.950   0.688
26543SOL     OW83422   8.838   6.161   0.078
26543SOL    HW183423   8.784   6.140   0.159
26543SOL    HW283424   8.929   6.120   0.087
26544SOL     OW83425   7.975   5.842   0.328
26544SOL    HW183426   8.002   5.783   0.253
26544SOL    HW283427   7.975   5.937   0.297
26545SOL     OW83428   9.202   6.809   1.588
26545SOL    HW183429   9.293   6.770   1.575
26545SOL    HW283430   9.210   6.905   1.612
26546SOL     OW83431   8.512   6.933   1.340
26546SOL    HW183432   8.432   6.910   1.395
26546SOL    HW283433   8.595   6.907   1.389
26547SOL     OW83434   9.040   7.215   1.625
26547SOL    HW183435   9.067   7.249   1.535
26547SOL    HW283436   9.119   7.177   1.671
26548SOL     OW83437   8.559   6.781   1.100
26548SOL    HW183438   8.519   6.825   1.181
26548SOL    HW283439   8.518   6.818   1.017
26549SOL     OW83440   9.086   6.685   1.079
26549SOL    HW183441   9.091   6.766   1.138
26549SOL    HW283442   9.000   6.687   1.028
26550SOL     OW83443   8.363   5.675   1.402
26550SOL    HW183444   8.388   5.655   1.307
26550SOL    HW283445   8.435   5.731   1.444
26551SOL     OW83446   8.428   6.702   1.719
26551SOL    HW183447   8.329   6.708   1.729
26551SOL    HW283448   8.451   6.622   1.663
26552SOL     OW83449   8.153   6.636   0.368
26552SOL    HW183450   8.139   6.643   0.467
26552SOL    HW283451   8.237   6.585   0.350
26553SOL     OW83452   7.858   6.399   1.251
26553SOL    HW183453   7.944   6.411   1.301
26553SOL    HW283454   7.816   6.312   1.278
26554SOL     OW83455   8.722   5.972   1.262
26554SOL    HW183456   8.743   6.046   1.326
26554SOL    HW283457   8.633   5.989   1.219
26555SOL     OW83458   7.512   7.150   1.331
26555SOL    HW183459   7.466   7.232   1.297
26555SOL    HW283460   7.610   7.169   1.340
26556SOL     OW83461   7.815   6.686   0.501
26556SOL    HW183462   7.808   6.769   0.445
26556SOL    HW283463   7.819   6.606   0.441
26557SOL     OW83464   8.014   6.123   0.865
26557SOL    HW183465   8.026   6.189   0.791
26557SOL    HW283466   8.060   6.157   0.948
26558SOL     OW83467   8.700   6.934   0.388
26558SOL    HW183468   8.750   7.011   0.428
26558SOL    HW283469   8.605   6.936   0.420
26559SOL     OW83470   8.720   7.031   1.142
26559SOL    HW183471   8.767   7.044   1.229
26559SOL    HW283472   8.654   6.957   1.151
26560SOL     OW83473   9.030   6.225   0.472
26560SOL    HW183474   8.999   6.286   0.545
26560SOL    HW283475   9.080   6.277   0.403
26561SOL     OW83476   7.802   7.096   1.329
26561SOL    HW183477   7.781   7.052   1.242
26561SOL    HW283478   7.899   7.122   1.332
26562SOL     OW83479   7.850   6.337   1.598
26562SOL    HW183480   7.918   6.392   1.551
26562SOL    HW283481   7.890   6.249   1.625
26563SOL     OW83482   9.035   6.365   1.670
26563SOL    HW183483   8.943   6.403   1.665
26563SOL    HW283484   9.095   6.412   1.605
26564SOL     OW83485   8.461   5.691   1.770
26564SOL    HW183486   8.467   5.776   1.718
26564SOL    HW283487   8.493   5.615   1.713
26565SOL     OW83488   8.021   6.456   1.029
26565SOL    HW183489   8.065   6.545   1.020
26565SOL    HW283490   7.958   6.456   1.106
26566SOL     OW83491   8.808   6.448   1.045
26566SOL    HW183492   8.733   6.448   0.979
26566SOL    HW283493   8.845   6.356   1.054
26567SOL     OW83494   8.657   6.111   0.275
26567SOL    HW183495   8.670   6.027   0.329
26567SOL    HW283496   8.628   6.185   0.335
26568SOL     OW83497   7.755   5.799   1.231
26568SOL    HW183498   7.732   5.836   1.321
26568SOL    HW283499   7.725   5.704   1.225
26569SOL     OW83500   7.485   6.896   1.282
26569SOL    HW183501   7.538   6.847   1.350
26569SOL    HW283502   7.507   6.994   1.287
26570SOL     OW83503   8.180   6.220   1.064
26570SOL    HW183504   8.239   6.194   0.988
26570SOL    HW283505   8.152   6.316   1.053
26571SOL     OW83506   9.176   6.521   1.854
26571SOL    HW183507   9.130   6.514   1.765
26571SOL    HW283508   9.114   6.565   1.920
26572SOL     OW83509   7.755   5.649   0.618
26572SOL    HW183510   7.744   5.743   0.651
26572SOL    HW283511   7.750   5.586   0.695
26573SOL     OW83512   9.070   5.953   0.374
26573SOL    HW183513   9.072   5.877   0.438
26573SOL    HW283514   9.022   6.030   0.414
26574SOL     OW83515   8.471   6.352   0.966
26574SOL    HW183516   8.486   6.373   1.062
26574SOL    HW283517   8.441   6.257   0.957
26575SOL     OW83518   8.428   7.159   1.700
26575SOL    HW183519   8.408   7.203   1.612
26575SOL    HW283520   8.467   7.068   1.684
26576SOL     OW83521   9.307   7.104   1.605
26576SOL    HW183522   9.321   7.131   1.510
26576SOL    HW283523   9.390   7.126   1.658
26577SOL     OW83524   7.798   6.484   1.804
26577SOL    HW183525   7.874   6.528   1.852
26577SOL    HW283526   7.833   6.437   1.722
26578SOL     OW83527   8.988   5.860   0.125
26578SOL    HW183528   8.927   5.785   0.148
26578SOL    HW283529   9.010   5.912   0.208
26579SOL     OW83530   8.751   6.424   0.042
26579SOL    HW183531   8.785   6.331   0.057
26579SOL    HW283532   8.769   6.451  -0.053
26580SOL     OW83533   8.516   6.919   0.849
26580SOL    HW183534   8.523   6.835   0.794
26580SOL    HW283535   8.578   6.988   0.813
26581SOL     OW83536   7.767   6.396   0.949
26581SOL    HW183537   7.860   6.432   0.954
26581SOL    HW283538   7.761   6.311   1.001
26582SOL     OW83539   7.787   6.095   1.006
26582SOL    HW183540   7.735   6.012   0.989
26582SOL    HW283541   7.864   6.100   0.942
26583SOL     OW83542   8.586   5.966   1.678
26583SOL    HW183543   8.541   6.029   1.742
26583SOL    HW283544   8.679   5.997   1.661
26584SOL     OW83545   8.608   5.793   1.477
26584SOL    HW183546   8.608   5.857   1.554
26584SOL    HW283547   8.636   5.841   1.394
26585SOL     OW83548   7.456   6.912   0.200
26585SOL    HW183549   7.363   6.933   0.169
26585SOL    HW283550   7.466   6.813   0.213
26586SOL     OW83551   7.536   7.387   0.927
26586SOL    HW183552   7.494   7.301   0.900
26586SOL    HW283553   7.630   7.390   0.893
26587SOL     OW83554   7.952   7.154   0.910
26587SOL    HW183555   8.018   7.228   0.919
26587SOL    HW283556   7.996   7.075   0.868
26588SOL     OW83557   8.450   6.382   1.238
26588SOL    HW183558   8.491   6.350   1.324
26588SOL    HW283559   8.354   6.355   1.235
26589SOL     OW83560   7.488   6.130   1.114
26589SOL    HW183561   7.573   6.097   1.073
26589SOL    HW283562   7.501   6.145   1.212
26590SOL     OW83563   7.637   6.106   1.722
26590SOL    HW183564   7.696   6.066   1.652
26590SOL    HW283565   7.579   6.177   1.681
26591SOL     OW83566   8.817   6.536   1.660
26591SOL    HW183567   8.856   6.625   1.680
26591SOL    HW283568   8.827   6.516   1.563
26592SOL     OW83569   8.263   6.158   0.325
26592SOL    HW183570   8.270   6.069   0.279
26592SOL    HW283571   8.169   6.192   0.317
26593SOL     OW83572   9.105   6.190   1.206
26593SOL    HW183573   9.067   6.121   1.268
26593SOL    HW283574   9.187   6.154   1.162
26594SOL     OW83575   7.700   7.150   1.744
26594SOL    HW183576   7.670   7.207   1.820
26594SOL    HW283577   7.693   7.053   1.770
26595SOL     OW83578   8.119   6.050   1.269
26595SOL    HW183579   8.085   5.961   1.239
26595SOL    HW283580   8.145   6.104   1.189
26596SOL     OW83581   8.378   7.264   1.465
26596SOL    HW183582   8.354   7.246   1.370
26596SOL    HW283583   8.408   7.358   1.475
26597SOL     OW83584   7.921   6.086   0.191
26597SOL    HW183585   7.982   6.166   0.195
26597SOL    HW283586   7.826   6.117   0.198
26598SOL     OW83587   7.607   6.723   1.466
26598SOL    HW183588   7.629   6.662   1.542
26598SOL    HW283589   7.617   6.674   1.380
26599SOL     OW83590   8.795   6.645   1.234
26599SOL    HW183591   8.819   6.582   1.160
26599SOL    HW283592   8.705   6.685   1.216
26600SOL     OW83593   8.750   6.441   0.309
26600SOL    HW183594   8.664   6.410   0.351
26600SOL    HW283595   8.746   6.427   0.210
26601SOL     OW83596   9.207   7.333   1.154
26601SOL    HW183597   9.268   7.363   1.081
26601SOL    HW283598   9.169   7.244   1.132
26602SOL     OW83599   8.700   7.317   1.128
26602SOL    HW183600   8.784   7.322   1.074
26602SOL    HW283601   8.677   7.221   1.146
26603SOL     OW83602   8.136   7.248   1.716
26603SOL    HW183603   8.080   7.329   1.725
26603SOL    HW283604   8.188   7.252   1.630
26604SOL     OW83605   8.351   5.672   0.133
26604SOL    HW183606   8.402   5.673   0.047
26604SOL    HW283607   8.407   5.630   0.204
26605SOL     OW83608   9.174   5.721   0.523
26605SOL    HW183609   9.247   5.704   0.456
26605SOL    HW283610   9.143   5.634   0.561
26606SOL     OW83611   8.728   6.513   0.672
26606SOL    HW183612   8.788   6.432   0.674
26606SOL    HW283613   8.768   6.582   0.612
26607SOL     OW83614   8.278   6.859   1.422
26607SOL    HW183615   8.273   6.892   1.517
26607SOL    HW283616   8.192   6.878   1.376
26608SOL     OW83617   8.120   7.202   0.154
26608SOL    HW183618   8.129   7.212   0.055
26608SOL    HW283619   8.080   7.113   0.175
26609SOL     OW83620   9.098   7.306   1.394
26609SOL    HW183621   9.151   7.316   1.310
26609SOL    HW283622   9.071   7.396   1.428
26610SOL     OW83623   7.711   5.912   0.720
26610SOL    HW183624   7.632   5.963   0.686
26610SOL    HW283625   7.702   5.897   0.818
26611SOL     OW83626   8.642   7.198   0.031
26611SOL    HW183627   8.648   7.105   0.068
26611SOL    HW283628   8.583   7.198  -0.049
26612SOL     OW83629   8.270   6.588   1.372
26612SOL    HW183630   8.310   6.587   1.280
26612SOL    HW283631   8.280   6.680   1.412
26613SOL     OW83632   8.364   6.496   0.291
26613SOL    HW183633   8.427   6.534   0.223
26613SOL    HW283634   8.404   6.413   0.330
26614SOL     OW83635   8.952   7.193   0.044
26614SOL    HW183636   8.860   7.230   0.051
26614SOL    HW283637   8.990   7.213  -0.046
26615SOL     OW83638   7.820   6.874   1.490
26615SOL    HW183639   7.807   6.967   1.456
26615SOL    HW283640   7.736   6.822   1.477
26616SOL     OW83641   9.062   6.878   1.289
26616SOL    HW183642   9.122   6.881   1.369
26616SOL    HW283643   8.987   6.942   1.302
26617SOL     OW83644   8.487   6.684   0.696
26617SOL    HW183645   8.417   6.637   0.750
26617SOL    HW283646   8.546   6.616   0.653
26618SOL     OW83647   8.462   5.822   0.971
26618SOL    HW183648   8.454   5.786   0.878
26618SOL    HW283649   8.460   5.746   1.036
26619SOL     OW83650   8.038   7.073   0.491
26619SOL    HW183651   8.080   7.015   0.421
26619SOL    HW283652   7.994   7.152   0.447
26620SOL     OW83653   9.157   5.971   1.381
26620SOL    HW183654   9.230   6.040   1.385
26620SOL    HW283655   9.185   5.896   1.322
26621SOL     OW83656   7.703   6.934   0.290
26621SOL    HW183657   7.607   6.935   0.263
26621SOL    HW283658   7.715   6.987   0.374
26622SOL     OW83659   7.553   6.599   1.726
26622SOL    HW183660   7.476   6.566   1.780
26622SOL    HW283661   7.638   6.569   1.768
26623SOL     OW83662   8.120   5.789   1.489
26623SOL    HW183663   8.210   5.773   1.449
26623SOL    HW283664   8.128   5.794   1.588
26624SOL     OW83665   7.523   5.931   0.033
26624SOL    HW183666   7.431   5.903   0.004
26624SOL    HW283667   7.554   6.008  -0.023
26625SOL     OW83668   8.888   6.442   1.398
26625SOL    HW183669   8.831   6.494   1.335
26625SOL    HW283670   8.984   6.454   1.374
26626SOL     OW83671   7.520   5.752   0.318
26626SOL    HW183672   7.503   5.835   0.264
26626SOL    HW283673   7.610   5.715   0.296
26627SOL     OW83674   8.631   6.921   0.119
26627SOL    HW183675   8.532   6.910   0.121
26627SOL    HW283676   8.665   6.936   0.212
26628SOL     OW83677   8.061   6.428   1.431
26628SOL    HW183678   8.117   6.509   1.414
26628SOL    HW283679   8.120   6.348   1.434
26629SOL     OW83680   8.941   7.353   0.959
26629SOL    HW183681   8.974   7.417   0.890
26629SOL    HW283682   9.007   7.347   1.034
26630SOL     OW83683   8.164   6.151   1.708
26630SOL    HW183684   8.183   6.216   1.782
26630SOL    HW283685   8.224   6.071   1.717
26631SOL     OW83686   8.898   6.806   1.633
26631SOL    HW183687   8.889   6.796   1.732
26631SOL    HW283688   8.994   6.799   1.607
26632SOL     OW83689   7.838   7.327   1.560
26632SOL    HW183690   7.747   7.368   1.558
26632SOL    HW283691   7.831   7.233   1.592
26633SOL     OW83692   9.122   6.469   1.254
26633SOL    HW183693   9.095   6.380   1.217
26633SOL    HW283694   9.123   6.537   1.181
26634SOL     OW83695   8.673   5.911   0.449
26634SOL    HW183696   8.738   5.837   0.438
26634SOL    HW283697   8.693   5.961   0.533
26635SOL     OW83698   8.042   6.331   0.652
26635SOL    HW183699   8.092   6.416   0.633
26635SOL    HW283700   7.954   6.333   0.604
26636SOL     OW83701   9.225   5.928   1.642
26636SOL    HW183702   9.208   5.959   1.548
26636SOL    HW283703   9.141   5.891   1.680
26637SOL     OW83704   9.178   6.520   1.517
26637SOL    HW183705   9.216   6.611   1.532
26637SOL    HW283706   9.170   6.503   1.418
26638SOL     OW83707   8.307   6.960   0.016
26638SOL    HW183708   8.261   6.975   0.104
26638SOL    HW283709   8.351   7.045  -0.014
26639SOL     OW83710   8.109   7.376   0.953
26639SOL    HW183711   8.063   7.464   0.940
26639SOL    HW283712   8.208   7.388   0.946
26640SOL     OW83713   8.307   6.542   0.861
26640SOL    HW183714   8.361   6.473   0.909
26640SOL    HW283715   8.275   6.611   0.927
26641SOL     OW83716   8.531   6.570   0.087
26641SOL    HW183717   8.508   6.623   0.005
26641SOL    HW283718   8.612   6.514   0.068
26642SOL     OW83719   7.669   6.900   1.844
26642SOL    HW183720   7.604   6.827   1.823
26642SOL    HW283721   7.673   6.914   1.942
26643SOL     OW83722   8.120   6.977   1.624
26643SOL    HW183723   8.042   6.927   1.662
26643SOL    HW283724   8.117   7.072   1.655
26644SOL     OW83725   9.272   5.778   1.227
26644SOL    HW183726   9.268   5.688   1.271
26644SOL    HW283727   9.275   5.767   1.128
26645SOL     OW83728   7.876   6.010   0.520
26645SOL    HW183729   7.906   5.938   0.458
26645SOL    HW283730   7.837   5.970   0.603
26646SOL     OW83731   9.153   7.073   1.104
26646SOL    HW183732   9.060   7.048   1.077
26646SOL    HW283733   9.179   7.023   1.186
26647SOL     OW83734   7.765   6.133   1.280
26647SOL    HW183735   7.803   6.074   1.352
26647SOL    HW283736   7.805   6.107   1.192
26648SOL     OW83737   8.260   7.172   0.687
26648SOL    HW183738   8.292   7.182   0.593
26648SOL    HW283739   8.181   7.110   0.689
26649SOL     OW83740   8.872   5.800   1.112
26649SOL    HW183741   8.924   5.735   1.167
26649SOL    HW283742   8.823   5.863   1.173
26650SOL     OW83743   8.449   5.620   1.154
26650SOL    HW183744   8.386   5.548   1.123
26650SOL    HW283745   8.542   5.584   1.154
26651SOL     OW83746   8.218   6.916   0.301
26651SOL    HW183747   8.172   6.829   0.318
26651SOL    HW283748   8.309   6.913   0.342
26652SOL     OW83749   8.066   7.153   1.284
26652SOL    HW183750   8.061   7.235   1.341
26652SOL    HW283751   8.155   7.150   1.239
26653SOL     OW83752   8.800   5.638   0.168
26653SOL    HW183753   8.835   5.597   0.084
26653SOL    HW283754   8.710   5.600   0.188
26654SOL     OW83755   8.748   6.039   0.691
26654SOL    HW183756   8.689   6.119   0.695
26654SOL    HW283757   8.763   6.004   0.784
26655SOL     OW83758   7.487   6.663   0.300
26655SOL    HW183759   7.586   6.652   0.291
26655SOL    HW283760   7.447   6.577   0.332
26656SOL     OW83761   7.678   6.214   1.975
26656SOL    HW183762   7.585   6.212   2.012
26656SOL    HW283763   7.679   6.175   1.883
26657SOL     OW83764   7.673   5.861   2.858
26657SOL    HW183765   7.708   5.844   2.950
26657SOL    HW283766   7.585   5.816   2.846
26658SOL     OW83767   7.467   5.954   2.509
26658SOL    HW183768   7.385   5.997   2.548
26658SOL    HW283769   7.439   5.881   2.446
26659SOL     OW83770   8.017   6.861   3.027
26659SOL    HW183771   7.924   6.854   2.990
26659SOL    HW283772   8.028   6.950   3.071
26660SOL     OW83773   9.003   7.097   2.565
26660SOL    HW183774   8.946   7.081   2.646
26660SOL    HW283775   8.944   7.107   2.485
26661SOL     OW83776   8.583   6.289   2.579
26661SOL    HW183777   8.640   6.367   2.554
26661SOL    HW283778   8.523   6.315   2.655
26662SOL     OW83779   9.203   6.193   2.093
26662SOL    HW183780   9.191   6.180   1.994
26662SOL    HW283781   9.173   6.112   2.142
26663SOL     OW83782   8.216   6.730   2.885
26663SOL    HW183783   8.138   6.747   2.945
26663SOL    HW283784   8.250   6.817   2.849
26664SOL     OW83785   8.298   6.384   3.685
26664SOL    HW183786   8.294   6.460   3.750
26664SOL    HW283787   8.320   6.420   3.594
26665SOL     OW83788   8.133   6.598   2.527
26665SOL    HW183789   8.202   6.582   2.597
26665SOL    HW283790   8.060   6.655   2.565
26666SOL     OW83791   8.134   6.747   3.665
26666SOL    HW183792   8.194   6.826   3.679
26666SOL    HW283793   8.048   6.778   3.624
26667SOL     OW83794   8.908   7.091   3.201
26667SOL    HW183795   8.932   7.185   3.227
26667SOL    HW283796   8.892   7.037   3.283
26668SOL     OW83797   7.886   5.978   3.361
26668SOL    HW183798   7.968   5.922   3.370
26668SOL    HW283799   7.805   5.920   3.365
26669SOL     OW83800   9.051   6.033   2.599
26669SOL    HW183801   8.977   6.079   2.549
26669SOL    HW283802   9.102   6.101   2.652
26670SOL     OW83803   7.679   7.299   2.345
26670SOL    HW183804   7.713   7.376   2.399
26670SOL    HW283805   7.723   7.299   2.255
26671SOL     OW83806   8.575   6.927   3.552
26671SOL    HW183807   8.622   6.927   3.640
26671SOL    HW283808   8.527   6.840   3.541
26672SOL     OW83809   7.678   7.020   2.400
26672SOL    HW183810   7.652   7.116   2.400
26672SOL    HW283811   7.607   6.966   2.445
26673SOL     OW83812   8.068   7.372   3.301
26673SOL    HW183813   7.976   7.355   3.336
26673SOL    HW283814   8.096   7.464   3.327
26674SOL     OW83815   8.054   6.550   1.985
26674SOL    HW183816   8.061   6.634   1.931
26674SOL    HW283817   8.100   6.563   2.073
26675SOL     OW83818   9.042   5.700   3.342
26675SOL    HW183819   9.024   5.767   3.270
26675SOL    HW283820   9.039   5.746   3.431
26676SOL     OW83821   7.570   6.229   2.425
26676SOL    HW183822   7.525   6.141   2.442
26676SOL    HW283823   7.569   6.283   2.509
26677SOL     OW83824   7.475   7.182   1.979
26677SOL    HW183825   7.456   7.086   2.000
26677SOL    HW283826   7.442   7.240   2.054
26678SOL     OW83827   9.137   6.508   2.474
26678SOL    HW183828   9.232   6.479   2.482
26678SOL    HW283829   9.129   6.573   2.399
26679SOL     OW83830   7.561   6.323   3.459
26679SOL    HW183831   7.649   6.310   3.504
26679SOL    HW283832   7.548   6.420   3.437
26680SOL     OW83833   8.061   6.951   2.588
26680SOL    HW183834   8.012   6.864   2.597
26680SOL    HW283835   8.038   6.994   2.501
26681SOL     OW83836   8.741   6.814   3.285
26681SOL    HW183837   8.778   6.741   3.227
26681SOL    HW283838   8.793   6.819   3.370
26682SOL     OW83839   8.257   5.590   2.364
26682SOL    HW183840   8.297   5.681   2.355
26682SOL    HW283841   8.157   5.598   2.370
26683SOL     OW83842   7.645   6.562   3.126
26683SOL    HW183843   7.734   6.517   3.112
26683SOL    HW283844   7.572   6.497   3.107
26684SOL     OW83845   8.635   7.378   3.478
26684SOL    HW183846   8.659   7.438   3.402
26684SOL    HW283847   8.642   7.283   3.448
26685SOL     OW83848   7.765   5.837   3.663
26685SOL    HW183849   7.836   5.908   3.669
26685SOL    HW283850   7.677   5.876   3.691
26686SOL     OW83851   8.914   7.003   2.815
26686SOL    HW183852   8.855   7.009   2.895
26686SOL    HW283853   8.899   6.915   2.769
26687SOL     OW83854   9.115   7.300   2.434
26687SOL    HW183855   9.074   7.277   2.346
26687SOL    HW283856   9.097   7.226   2.499
26688SOL     OW83857   8.046   6.315   2.132
26688SOL    HW183858   8.070   6.384   2.064
26688SOL    HW283859   7.968   6.348   2.186
26689SOL     OW83860   8.729   5.931   2.806
26689SOL    HW183861   8.643   5.881   2.793
26689SOL    HW283862   8.791   5.877   2.862
26690SOL     OW83863   8.255   6.191   3.327
26690SOL    HW183864   8.208   6.188   3.416
26690SOL    HW283865   8.204   6.136   3.261
26691SOL     OW83866   8.842   6.055   3.536
26691SOL    HW183867   8.822   6.098   3.624
26691SOL    HW283868   8.920   5.993   3.545
26692SOL     OW83869   8.421   6.476   3.434
26692SOL    HW183870   8.467   6.392   3.405
26692SOL    HW283871   8.365   6.510   3.359
26693SOL     OW83872   8.439   5.996   3.104
26693SOL    HW183873   8.362   6.030   3.158
26693SOL    HW283874   8.405   5.945   3.025
26694SOL     OW83875   8.489   6.287   2.291
26694SOL    HW183876   8.515   6.283   2.387
26694SOL    HW283877   8.404   6.236   2.277
26695SOL     OW83878   7.524   6.397   2.651
26695SOL    HW183879   7.623   6.385   2.660
26695SOL    HW283880   7.500   6.492   2.672
26696SOL     OW83881   7.578   7.407   3.433
26696SOL    HW183882   7.568   7.392   3.532
26696SOL    HW283883   7.492   7.443   3.397
26697SOL     OW83884   8.313   5.934   2.057
26697SOL    HW183885   8.372   5.997   2.008
26697SOL    HW283886   8.332   5.840   2.028
26698SOL     OW83887   9.167   6.171   3.693
26698SOL    HW183888   9.141   6.260   3.657
26698SOL    HW283889   9.165   6.103   3.620
26699SOL     OW83890   8.810   6.730   2.407
26699SOL    HW183891   8.893   6.701   2.359
26699SOL    HW283892   8.761   6.797   2.351
26700SOL     OW83893   8.456   7.042   2.339
26700SOL    HW183894   8.410   7.114   2.287
26700SOL    HW283895   8.452   7.062   2.437
26701SOL     OW83896   9.243   6.652   2.735
26701SOL    HW183897   9.181   6.637   2.659
26701SOL    HW283898   9.191   6.663   2.820
26702SOL     OW83899   8.675   7.136   3.368
26702SOL    HW183900   8.681   7.059   3.432
26702SOL    HW283901   8.623   7.110   3.288
26703SOL     OW83902   7.769   6.529   2.104
26703SOL    HW183903   7.851   6.568   2.062
26703SOL    HW283904   7.742   6.447   2.055
26704SOL     OW83905   8.906   6.321   2.590
26704SOL    HW183906   8.901   6.256   2.665
26704SOL    HW283907   8.986   6.380   2.603
26705SOL     OW83908   7.909   6.852   3.589
26705SOL    HW183909   7.859   6.853   3.503
26705SOL    HW283910   7.846   6.834   3.665
26706SOL     OW83911   8.559   7.362   2.099
26706SOL    HW183912   8.499   7.300   2.149
26706SOL    HW283913   8.590   7.318   2.014
26707SOL     OW83914   7.650   5.871   3.360
26707SOL    HW183915   7.570   5.931   3.347
26707SOL    HW283916   7.640   5.822   3.446
26708SOL     OW83917   7.912   7.329   2.185
26708SOL    HW183918   7.945   7.368   2.271
26708SOL    HW283919   7.988   7.322   2.120
26709SOL     OW83920   8.848   5.693   2.288
26709SOL    HW183921   8.824   5.656   2.198
26709SOL    HW283922   8.947   5.709   2.292
26710SOL     OW83923   7.697   7.371   3.103
26710SOL    HW183924   7.754   7.306   3.153
26710SOL    HW283925   7.681   7.338   3.010
26711SOL     OW83926   8.388   7.284   2.766
26711SOL    HW183927   8.468   7.227   2.787
26711SOL    HW283928   8.339   7.244   2.689
26712SOL     OW83929   7.830   6.286   2.342
26712SOL    HW183930   7.875   6.196   2.339
26712SOL    HW283931   7.736   6.275   2.375
26713SOL     OW83932   8.995   5.808   3.591
26713SOL    HW183933   8.990   5.845   3.683
26713SOL    HW283934   8.923   5.739   3.579
26714SOL     OW83935   8.062   5.708   1.979
26714SOL    HW183936   8.160   5.686   1.986
26714SOL    HW283937   8.031   5.691   1.886
26715SOL     OW83938   8.229   5.850   3.611
26715SOL    HW183939   8.296   5.789   3.654
26715SOL    HW283940   8.156   5.869   3.676
26716SOL     OW83941   8.336   7.100   3.057
26716SOL    HW183942   8.313   7.075   2.963
26716SOL    HW283943   8.397   7.031   3.096
26717SOL     OW83944   8.799   6.176   3.295
26717SOL    HW183945   8.827   6.133   3.380
26717SOL    HW283946   8.824   6.272   3.296
26718SOL     OW83947   8.251   6.988   2.786
26718SOL    HW183948   8.341   7.002   2.744
26718SOL    HW283949   8.180   6.990   2.715
26719SOL     OW83950   8.370   6.089   2.761
26719SOL    HW183951   8.345   6.080   2.665
26719SOL    HW283952   8.418   6.007   2.792
26720SOL     OW83953   7.987   5.650   2.374
26720SOL    HW183954   7.906   5.651   2.432
26720SOL    HW283955   7.990   5.733   2.319
26721SOL     OW83956   8.882   6.774   1.903
26721SOL    HW183957   8.914   6.698   1.960
26721SOL    HW283958   8.790   6.801   1.933
26722SOL     OW83959   8.383   5.822   2.342
26722SOL    HW183960   8.335   5.863   2.264
26722SOL    HW283961   8.482   5.820   2.323
26723SOL     OW83962   8.524   6.269   3.326
26723SOL    HW183963   8.444   6.208   3.329
26723SOL    HW283964   8.605   6.216   3.302
26724SOL     OW83965   8.675   7.156   2.655
26724SOL    HW183966   8.696   7.230   2.590
26724SOL    HW283967   8.743   7.156   2.728
26725SOL     OW83968   7.907   6.738   2.603
26725SOL    HW183969   7.836   6.711   2.668
26725SOL    HW283970   7.881   6.710   2.510
26726SOL     OW83971   8.719   7.383   2.453
26726SOL    HW183972   8.763   7.447   2.389
26726SOL    HW283973   8.669   7.435   2.523
26727SOL     OW83974   8.480   6.135   1.878
26727SOL    HW183975   8.439   6.217   1.839
26727SOL    HW283976   8.544   6.161   1.951
26728SOL     OW83977   7.526   6.142   3.248
26728SOL    HW183978   7.618   6.141   3.207
26728SOL    HW283979   7.520   6.216   3.315
26729SOL     OW83980   8.009   5.808   3.009
26729SOL    HW183981   8.047   5.724   3.046
26729SOL    HW283982   7.921   5.827   3.053
26730SOL     OW83983   8.314   6.040   2.504
26730SOL    HW183984   8.282   6.112   2.442
26730SOL    HW283985   8.338   5.959   2.451
26731SOL     OW83986   8.465   5.625   2.615
26731SOL    HW183987   8.393   5.630   2.546
26731SOL    HW283988   8.441   5.556   2.684
26732SOL     OW83989   8.877   6.759   2.729
26732SOL    HW183990   8.822   6.675   2.722
26732SOL    HW283991   8.903   6.788   2.637
26733SOL     OW83992   8.914   6.176   2.854
26733SOL    HW183993   8.884   6.081   2.861
26733SOL    HW283994   8.987   6.192   2.920
26734SOL     OW83995   9.305   6.419   2.239
26734SOL    HW183996   9.347   6.355   2.303
26734SOL    HW283997   9.267   6.368   2.161
26735SOL     OW83998   7.936   6.971   2.036
26735SOL    HW183999   7.849   6.956   2.083
26735SOL    HW284000   7.919   6.997   1.941
26736SOL     OW84001   9.112   6.866   2.519
26736SOL    HW184002   9.211   6.874   2.533
26736SOL    HW284003   9.067   6.950   2.550
26737SOL     OW84004   8.838   6.161   1.940
26737SOL    HW184005   8.784   6.140   2.021
26737SOL    HW284006   8.929   6.120   1.949
26738SOL     OW84007   7.975   5.842   2.190
26738SOL    HW184008   8.002   5.783   2.115
26738SOL    HW284009   7.975   5.937   2.159
26739SOL     OW84010   9.202   6.809   3.450
26739SOL    HW184011   9.293   6.770   3.437
26739SOL    HW284012   9.210   6.905   3.474
26740SOL     OW84013   8.512   6.933   3.202
26740SOL    HW184014   8.432   6.910   3.257
26740SOL    HW284015   8.595   6.907   3.251
26741SOL     OW84016   9.040   7.215   3.487
26741SOL    HW184017   9.067   7.249   3.397
26741SOL    HW284018   9.119   7.177   3.533
26742SOL     OW84019   8.559   6.781   2.962
26742SOL    HW184020   8.519   6.825   3.043
26742SOL    HW284021   8.518   6.818   2.879
26743SOL     OW84022   9.086   6.685   2.941
26743SOL    HW184023   9.091   6.766   3.000
26743SOL    HW284024   9.000   6.687   2.890
26744SOL     OW84025   8.363   5.675   3.264
26744SOL    HW184026   8.388   5.655   3.169
26744SOL    HW284027   8.435   5.731   3.306
26745SOL     OW84028   8.428   6.702   3.581
26745SOL    HW184029   8.329   6.708   3.591
26745SOL    HW284030   8.451   6.622   3.525
26746SOL     OW84031   8.153   6.636   2.230
26746SOL    HW184032   8.139   6.643   2.329
26746SOL    HW284033   8.237   6.585   2.212
26747SOL     OW84034   7.858   6.399   3.113
26747SOL    HW184035   7.944   6.411   3.163
26747SOL    HW284036   7.816   6.312   3.140
26748SOL     OW84037   8.722   5.972   3.124
26748SOL    HW184038   8.743   6.046   3.188
26748SOL    HW284039   8.633   5.989   3.081
26749SOL     OW84040   7.512   7.150   3.193
26749SOL    HW184041   7.466   7.232   3.159
26749SOL    HW284042   7.610   7.169   3.202
26750SOL     OW84043   7.815   6.686   2.363
26750SOL    HW184044   7.808   6.769   2.307
26750SOL    HW284045   7.819   6.606   2.303
26751SOL     OW84046   8.014   6.123   2.727
26751SOL    HW184047   8.026   6.189   2.653
26751SOL    HW284048   8.060   6.157   2.810
26752SOL     OW84049   8.700   6.934   2.250
26752SOL    HW184050   8.750   7.011   2.290
26752SOL    HW284051   8.605   6.936   2.282
26753SOL     OW84052   8.720   7.031   3.004
26753SOL    HW184053   8.767   7.044   3.091
26753SOL    HW284054   8.654   6.957   3.013
26754SOL     OW84055   9.030   6.225   2.334
26754SOL    HW184056   8.999   6.286   2.407
26754SOL    HW284057   9.080   6.277   2.265
26755SOL     OW84058   7.850   6.337   3.460
26755SOL    HW184059   7.918   6.392   3.413
26755SOL    HW284060   7.890   6.249   3.487
26756SOL     OW84061   9.035   6.365   3.532
26756SOL    HW184062   8.943   6.403   3.527
26756SOL    HW284063   9.095   6.412   3.467
26757SOL     OW84064   8.461   5.691   3.632
26757SOL    HW184065   8.467   5.776   3.580
26757SOL    HW284066   8.493   5.615   3.575
26758SOL     OW84067   7.952   5.636   3.602
26758SOL    HW184068   7.910   5.579   3.532
26758SOL    HW284069   7.886   5.705   3.634
26759SOL     OW84070   8.021   6.456   2.891
26759SOL    HW184071   8.065   6.545   2.882
26759SOL    HW284072   7.958   6.456   2.968
26760SOL     OW84073   8.808   6.448   2.907
26760SOL    HW184074   8.733   6.448   2.841
26760SOL    HW284075   8.845   6.356   2.916
26761SOL     OW84076   8.657   6.111   2.137
26761SOL    HW184077   8.670   6.027   2.191
26761SOL    HW284078   8.628   6.185   2.197
26762SOL     OW84079   7.755   5.799   3.093
26762SOL    HW184080   7.732   5.836   3.183
26762SOL    HW284081   7.725   5.704   3.087
26763SOL     OW84082   8.180   6.220   2.926
26763SOL    HW184083   8.239   6.194   2.850
26763SOL    HW284084   8.152   6.316   2.915
26764SOL     OW84085   9.176   6.521   3.716
26764SOL    HW184086   9.130   6.514   3.627
26764SOL    HW284087   9.114   6.565   3.782
26765SOL     OW84088   9.070   5.953   2.236
26765SOL    HW184089   9.072   5.877   2.300
26765SOL    HW284090   9.022   6.030   2.276
26766SOL     OW84091   8.471   6.352   2.828
26766SOL    HW184092   8.486   6.373   2.924
26766SOL    HW284093   8.441   6.257   2.819
26767SOL     OW84094   8.428   7.159   3.562
26767SOL    HW184095   8.408   7.203   3.474
26767SOL    HW284096   8.467   7.068   3.546
26768SOL     OW84097   9.307   7.104   3.467
26768SOL    HW184098   9.321   7.131   3.372
26768SOL    HW284099   9.390   7.126   3.520
26769SOL     OW84100   7.798   6.484   3.666
26769SOL    HW184101   7.874   6.528   3.714
26769SOL    HW284102   7.833   6.437   3.584
26770SOL     OW84103   8.988   5.860   1.987
26770SOL    HW184104   8.927   5.785   2.010
26770SOL    HW284105   9.010   5.912   2.070
26771SOL     OW84106   8.751   6.424   1.904
26771SOL    HW184107   8.785   6.331   1.919
26771SOL    HW284108   8.769   6.451   1.809
26772SOL     OW84109   8.516   6.919   2.711
26772SOL    HW184110   8.523   6.835   2.656
26772SOL    HW284111   8.578   6.988   2.675
26773SOL     OW84112   7.767   6.396   2.811
26773SOL    HW184113   7.860   6.432   2.816
26773SOL    HW284114   7.761   6.311   2.863
26774SOL     OW84115   7.787   6.095   2.868
26774SOL    HW184116   7.735   6.012   2.851
26774SOL    HW284117   7.864   6.100   2.804
26775SOL     OW84118   8.586   5.966   3.540
26775SOL    HW184119   8.541   6.029   3.604
26775SOL    HW284120   8.679   5.997   3.523
26776SOL     OW84121   8.608   5.793   3.339
26776SOL    HW184122   8.608   5.857   3.416
26776SOL    HW284123   8.636   5.841   3.256
26777SOL     OW84124   7.456   6.912   2.062
26777SOL    HW184125   7.363   6.933   2.031
26777SOL    HW284126   7.466   6.813   2.075
26778SOL     OW84127   8.450   6.382   3.100
26778SOL    HW184128   8.491   6.350   3.186
26778SOL    HW284129   8.354   6.355   3.097
26779SOL     OW84130   7.488   6.130   2.976
26779SOL    HW184131   7.573   6.097   2.935
26779SOL    HW284132   7.501   6.145   3.074
26780SOL     OW84133   7.637   6.106   3.584
26780SOL    HW184134   7.696   6.066   3.514
26780SOL    HW284135   7.579   6.177   3.543
26781SOL     OW84136   8.817   6.536   3.522
26781SOL    HW184137   8.856   6.625   3.542
26781SOL    HW284138   8.827   6.516   3.425
26782SOL     OW84139   8.263   6.158   2.187
26782SOL    HW184140   8.270   6.069   2.141
26782SOL    HW284141   8.169   6.192   2.179
26783SOL     OW84142   9.105   6.190   3.068
26783SOL    HW184143   9.067   6.121   3.130
26783SOL    HW284144   9.187   6.154   3.024
26784SOL     OW84145   7.700   7.150   3.606
26784SOL    HW184146   7.670   7.207   3.682
26784SOL    HW284147   7.693   7.053   3.632
26785SOL     OW84148   8.119   6.050   3.131
26785SOL    HW184149   8.085   5.961   3.101
26785SOL    HW284150   8.145   6.104   3.051
26786SOL     OW84151   8.378   7.264   3.327
26786SOL    HW184152   8.354   7.246   3.232
26786SOL    HW284153   8.408   7.358   3.337
26787SOL     OW84154   7.921   6.086   2.053
26787SOL    HW184155   7.982   6.166   2.057
26787SOL    HW284156   7.826   6.117   2.060
26788SOL     OW84157   7.607   6.723   3.328
26788SOL    HW184158   7.629   6.662   3.404
26788SOL    HW284159   7.617   6.674   3.242
26789SOL     OW84160   8.795   6.645   3.096
26789SOL    HW184161   8.819   6.582   3.022
26789SOL    HW284162   8.705   6.685   3.078
26790SOL     OW84163   8.750   6.441   2.171
26790SOL    HW184164   8.664   6.410   2.213
26790SOL    HW284165   8.746   6.427   2.072
26791SOL     OW84166   9.207   7.333   3.016
26791SOL    HW184167   9.268   7.363   2.943
26791SOL    HW284168   9.169   7.244   2.994
26792SOL     OW84169   8.700   7.317   2.990
26792SOL    HW184170   8.784   7.322   2.936
26792SOL    HW284171   8.677   7.221   3.008
26793SOL     OW84172   8.136   7.248   3.578
26793SOL    HW184173   8.080   7.329   3.587
26793SOL    HW284174   8.188   7.252   3.492
26794SOL     OW84175   9.174   5.721   2.385
26794SOL    HW184176   9.247   5.704   2.318
26794SOL    HW284177   9.143   5.634   2.423
26795SOL     OW84178   8.836   7.159   2.339
26795SOL    HW184179   8.903   7.171   2.265
26795SOL    HW284180   8.796   7.248   2.362
26796SOL     OW84181   7.578   7.380   3.713
26796SOL    HW184182   7.537   7.306   3.766
26796SOL    HW284183   7.642   7.431   3.771
26797SOL     OW84184   8.728   6.513   2.534
26797SOL    HW184185   8.788   6.432   2.536
26797SOL    HW284186   8.768   6.582   2.474
26798SOL     OW84187   8.278   6.859   3.284
26798SOL    HW184188   8.273   6.892   3.379
26798SOL    HW284189   8.192   6.878   3.238
26799SOL     OW84190   8.120   7.202   2.016
26799SOL    HW184191   8.129   7.212   1.917
26799SOL    HW284192   8.080   7.113   2.037
26800SOL     OW84193   9.098   7.306   3.256
26800SOL    HW184194   9.151   7.316   3.172
26800SOL    HW284195   9.071   7.396   3.290
26801SOL     OW84196   9.289   5.761   2.825
26801SOL    HW184197   9.328   5.676   2.789
26801SOL    HW284198   9.191   5.763   2.806
26802SOL     OW84199   7.711   5.912   2.582
26802SOL    HW184200   7.632   5.963   2.548
26802SOL    HW284201   7.702   5.897   2.680
26803SOL     OW84202   8.642   7.198   1.893
26803SOL    HW184203   8.648   7.105   1.930
26803SOL    HW284204   8.583   7.198   1.813
26804SOL     OW84205   8.270   6.588   3.234
26804SOL    HW184206   8.310   6.587   3.142
26804SOL    HW284207   8.280   6.680   3.274
26805SOL     OW84208   8.364   6.496   2.153
26805SOL    HW184209   8.427   6.534   2.085
26805SOL    HW284210   8.404   6.413   2.192
26806SOL     OW84211   8.952   7.193   1.906
26806SOL    HW184212   8.860   7.230   1.913
26806SOL    HW284213   8.990   7.213   1.816
26807SOL     OW84214   7.820   6.874   3.352
26807SOL    HW184215   7.807   6.967   3.318
26807SOL    HW284216   7.736   6.822   3.339
26808SOL     OW84217   9.062   6.878   3.151
26808SOL    HW184218   9.122   6.881   3.231
26808SOL    HW284219   8.987   6.942   3.164
26809SOL     OW84220   8.487   6.684   2.558
26809SOL    HW184221   8.417   6.637   2.612
26809SOL    HW284222   8.546   6.616   2.515
26810SOL     OW84223   8.462   5.822   2.833
26810SOL    HW184224   8.454   5.786   2.740
26810SOL    HW284225   8.460   5.746   2.898
26811SOL     OW84226   8.038   7.073   2.353
26811SOL    HW184227   8.080   7.015   2.283
26811SOL    HW284228   7.994   7.152   2.309
26812SOL     OW84229   9.157   5.971   3.243
26812SOL    HW184230   9.230   6.040   3.247
26812SOL    HW284231   9.185   5.896   3.184
26813SOL     OW84232   7.703   6.934   2.152
26813SOL    HW184233   7.607   6.935   2.125
26813SOL    HW284234   7.715   6.987   2.236
26814SOL     OW84235   7.553   6.599   3.588
26814SOL    HW184236   7.476   6.566   3.642
26814SOL    HW284237   7.638   6.569   3.630
26815SOL     OW84238   8.120   5.789   3.351
26815SOL    HW184239   8.210   5.773   3.311
26815SOL    HW284240   8.128   5.794   3.450
26816SOL     OW84241   7.523   5.931   1.895
26816SOL    HW184242   7.431   5.903   1.866
26816SOL    HW284243   7.554   6.008   1.839
26817SOL     OW84244   8.888   6.442   3.260
26817SOL    HW184245   8.831   6.494   3.197
26817SOL    HW284246   8.984   6.454   3.236
26818SOL     OW84247   7.520   5.752   2.180
26818SOL    HW184248   7.503   5.835   2.126
26818SOL    HW284249   7.610   5.715   2.158
26819SOL     OW84250   8.631   6.921   1.981
26819SOL    HW184251   8.532   6.910   1.983
26819SOL    HW284252   8.665   6.936   2.074
26820SOL     OW84253   8.061   6.428   3.293
26820SOL    HW184254   8.117   6.509   3.276
26820SOL    HW284255   8.120   6.348   3.296
26821SOL     OW84256   8.941   7.353   2.821
26821SOL    HW184257   8.974   7.417   2.752
26821SOL    HW284258   9.007   7.347   2.896
26822SOL     OW84259   8.164   6.151   3.570
26822SOL    HW184260   8.183   6.216   3.644
26822SOL    HW284261   8.224   6.071   3.579
26823SOL     OW84262   8.898   6.806   3.495
26823SOL    HW184263   8.889   6.796   3.594
26823SOL    HW284264   8.994   6.799   3.469
26824SOL     OW84265   7.838   7.327   3.422
26824SOL    HW184266   7.747   7.368   3.420
26824SOL    HW284267   7.831   7.233   3.454
26825SOL     OW84268   9.122   6.469   3.116
26825SOL    HW184269   9.095   6.380   3.079
26825SOL    HW284270   9.123   6.537   3.043
26826SOL     OW84271   8.673   5.911   2.311
26826SOL    HW184272   8.738   5.837   2.300
26826SOL    HW284273   8.693   5.961   2.395
26827SOL     OW84274   8.042   6.331   2.514
26827SOL    HW184275   8.092   6.416   2.495
26827SOL    HW284276   7.954   6.333   2.466
26828SOL     OW84277   9.225   5.928   3.504
26828SOL    HW184278   9.208   5.959   3.410
26828SOL    HW284279   9.141   5.891   3.542
26829SOL     OW84280   9.178   6.520   3.379
26829SOL    HW184281   9.216   6.611   3.394
26829SOL    HW284282   9.170   6.503   3.280
26830SOL     OW84283   8.307   6.960   1.878
26830SOL    HW184284   8.261   6.975   1.966
26830SOL    HW284285   8.351   7.045   1.848
26831SOL     OW84286   8.109   7.376   2.815
26831SOL    HW184287   8.063   7.464   2.802
26831SOL    HW284288   8.208   7.388   2.808
26832SOL     OW84289   8.307   6.542   2.723
26832SOL    HW184290   8.361   6.473   2.771
26832SOL    HW284291   8.275   6.611   2.789
26833SOL     OW84292   8.531   6.570   1.949
26833SOL    HW184293   8.508   6.623   1.867
26833SOL    HW284294   8.612   6.514   1.930
26834SOL     OW84295   9.309   7.155   2.713
26834SOL    HW184296   9.238   7.143   2.643
26834SOL    HW284297   9.310   7.076   2.773
26835SOL     OW84298   7.669   6.900   3.706
26835SOL    HW184299   7.604   6.827   3.685
26835SOL    HW284300   7.673   6.914   3.804
26836SOL     OW84301   7.527   6.826   2.515
26836SOL    HW184302   7.526   6.779   2.603
26836SOL    HW284303   7.609   6.798   2.464
26837SOL     OW84304   8.120   6.977   3.486
26837SOL    HW184305   8.042   6.927   3.524
26837SOL    HW284306   8.117   7.072   3.517
26838SOL     OW84307   9.272   5.778   3.089
26838SOL    HW184308   9.268   5.688   3.133
26838SOL    HW284309   9.275   5.767   2.990
26839SOL     OW84310   7.876   6.010   2.382
26839SOL    HW184311   7.906   5.938   2.320
26839SOL    HW284312   7.837   5.970   2.465
26840SOL     OW84313   9.153   7.073   2.966
26840SOL    HW184314   9.060   7.048   2.939
26840SOL    HW284315   9.179   7.023   3.048
26841SOL     OW84316   7.765   6.133   3.142
26841SOL    HW184317   7.803   6.074   3.214
26841SOL    HW284318   7.805   6.107   3.054
26842SOL     OW84319   8.260   7.172   2.549
26842SOL    HW184320   8.292   7.182   2.455
26842SOL    HW284321   8.181   7.110   2.551
26843SOL     OW84322   8.872   5.800   2.974
26843SOL    HW184323   8.924   5.735   3.029
26843SOL    HW284324   8.823   5.863   3.035
26844SOL     OW84325   8.449   5.620   3.016
26844SOL    HW184326   8.386   5.548   2.985
26844SOL    HW284327   8.542   5.584   3.016
26845SOL     OW84328   8.218   6.916   2.163
26845SOL    HW184329   8.172   6.829   2.180
26845SOL    HW284330   8.309   6.913   2.204
26846SOL     OW84331   8.066   7.153   3.146
26846SOL    HW184332   8.061   7.235   3.203
26846SOL    HW284333   8.155   7.150   3.101
26847SOL     OW84334   8.800   5.638   2.030
26847SOL    HW184335   8.835   5.597   1.946
26847SOL    HW284336   8.710   5.600   2.050
26848SOL     OW84337   8.748   6.039   2.553
26848SOL    HW184338   8.689   6.119   2.557
26848SOL    HW284339   8.763   6.004   2.646
26849SOL     OW84340   9.041   5.807   2.744
26849SOL    HW184341   8.957   5.806   2.798
26849SOL    HW284342   9.043   5.890   2.688
26850SOL     OW84343   7.487   6.663   2.162
26850SOL    HW184344   7.586   6.652   2.153
26850SOL    HW284345   7.447   6.577   2.194
26851SOL     OW84346   8.323   7.232   2.199
26851SOL    HW184347   8.246   7.197   2.145
26851SOL    HW284348   8.291   7.303   2.261
26852SOL     OW84349   7.678   6.214   3.837
26852SOL    HW184350   7.585   6.212   3.874
26852SOL    HW284351   7.679   6.175   3.745
26853SOL     OW84352   7.673   5.861   4.720
26853SOL    HW184353   7.708   5.844   4.812
26853SOL    HW284354   7.585   5.816   4.708
26854SOL     OW84355   7.467   5.954   4.371
26854SOL    HW184356   7.385   5.997   4.410
26854SOL    HW284357   7.439   5.881   4.308
26855SOL     OW84358   8.017   6.861   4.889
26855SOL    HW184359   7.924   6.854   4.852
26855SOL    HW284360   8.028   6.950   4.933
26856SOL     OW84361   9.003   7.097   4.427
26856SOL    HW184362   8.946   7.081   4.508
26856SOL    HW284363   8.944   7.107   4.347
26857SOL     OW84364   8.583   6.289   4.441
26857SOL    HW184365   8.640   6.367   4.416
26857SOL    HW284366   8.523   6.315   4.517
26858SOL     OW84367   9.203   6.193   3.955
26858SOL    HW184368   9.191   6.180   3.856
26858SOL    HW284369   9.173   6.112   4.004
26859SOL     OW84370   8.216   6.730   4.747
26859SOL    HW184371   8.138   6.747   4.807
26859SOL    HW284372   8.250   6.817   4.711
26860SOL     OW84373   8.298   6.384   5.547
26860SOL    HW184374   8.294   6.460   5.612
26860SOL    HW284375   8.320   6.420   5.456
26861SOL     OW84376   8.133   6.598   4.389
26861SOL    HW184377   8.202   6.582   4.459
26861SOL    HW284378   8.060   6.655   4.427
26862SOL     OW84379   8.134   6.747   5.527
26862SOL    HW184380   8.194   6.826   5.541
26862SOL    HW284381   8.048   6.778   5.486
26863SOL     OW84382   7.783   7.021   4.785
26863SOL    HW184383   7.705   6.990   4.732
26863SOL    HW284384   7.841   7.079   4.728
26864SOL     OW84385   8.908   7.091   5.063
26864SOL    HW184386   8.932   7.185   5.089
26864SOL    HW284387   8.892   7.037   5.145
26865SOL     OW84388   7.886   5.978   5.223
26865SOL    HW184389   7.968   5.922   5.232
26865SOL    HW284390   7.805   5.920   5.227
26866SOL     OW84391   9.051   6.033   4.461
26866SOL    HW184392   8.977   6.079   4.411
26866SOL    HW284393   9.102   6.101   4.514
26867SOL     OW84394   7.679   7.299   4.207
26867SOL    HW184395   7.713   7.376   4.261
26867SOL    HW284396   7.723   7.299   4.117
26868SOL     OW84397   8.575   6.927   5.414
26868SOL    HW184398   8.622   6.927   5.502
26868SOL    HW284399   8.527   6.840   5.403
26869SOL     OW84400   7.678   7.020   4.262
26869SOL    HW184401   7.652   7.116   4.262
26869SOL    HW284402   7.607   6.966   4.307
26870SOL     OW84403   7.688   6.677   4.610
26870SOL    HW184404   7.702   6.593   4.662
26870SOL    HW284405   7.633   6.741   4.665
26871SOL     OW84406   8.068   7.372   5.163
26871SOL    HW184407   7.976   7.355   5.198
26871SOL    HW284408   8.096   7.464   5.189
26872SOL     OW84409   8.054   6.550   3.847
26872SOL    HW184410   8.061   6.634   3.793
26872SOL    HW284411   8.100   6.563   3.935
26873SOL     OW84412   9.042   5.700   5.204
26873SOL    HW184413   9.024   5.767   5.132
26873SOL    HW284414   9.039   5.746   5.293
26874SOL     OW84415   7.570   6.229   4.287
26874SOL    HW184416   7.525   6.141   4.304
26874SOL    HW284417   7.569   6.283   4.371
26875SOL     OW84418   7.475   7.182   3.841
26875SOL    HW184419   7.456   7.086   3.862
26875SOL    HW284420   7.442   7.240   3.916
26876SOL     OW84421   9.137   6.508   4.336
26876SOL    HW184422   9.232   6.479   4.344
26876SOL    HW284423   9.129   6.573   4.261
26877SOL     OW84424   9.089   6.694   4.156
26877SOL    HW184425   9.175   6.696   4.104
26877SOL    HW284426   9.103   6.741   4.244
26878SOL     OW84427   7.561   6.323   5.321
26878SOL    HW184428   7.649   6.310   5.366
26878SOL    HW284429   7.548   6.420   5.299
26879SOL     OW84430   8.061   6.951   4.450
26879SOL    HW184431   8.012   6.864   4.459
26879SOL    HW284432   8.038   6.994   4.363
26880SOL     OW84433   8.741   6.814   5.147
26880SOL    HW184434   8.778   6.741   5.089
26880SOL    HW284435   8.793   6.819   5.232
26881SOL     OW84436   8.257   5.590   4.226
26881SOL    HW184437   8.297   5.681   4.217
26881SOL    HW284438   8.157   5.598   4.232
26882SOL     OW84439   7.645   6.562   4.988
26882SOL    HW184440   7.734   6.517   4.974
26882SOL    HW284441   7.572   6.497   4.969
26883SOL     OW84442   8.973   6.585   3.914
26883SOL    HW184443   8.910   6.509   3.927
26883SOL    HW284444   9.021   6.603   4.000
26884SOL     OW84445   8.635   7.378   5.340
26884SOL    HW184446   8.659   7.438   5.264
26884SOL    HW284447   8.642   7.283   5.310
26885SOL     OW84448   7.765   5.837   5.525
26885SOL    HW184449   7.836   5.908   5.531
26885SOL    HW284450   7.677   5.876   5.553
26886SOL     OW84451   8.914   7.003   4.677
26886SOL    HW184452   8.855   7.009   4.757
26886SOL    HW284453   8.899   6.915   4.631
26887SOL     OW84454   9.115   7.300   4.296
26887SOL    HW184455   9.074   7.277   4.208
26887SOL    HW284456   9.097   7.226   4.361
26888SOL     OW84457   8.046   6.315   3.994
26888SOL    HW184458   8.070   6.384   3.926
26888SOL    HW284459   7.968   6.348   4.048
26889SOL     OW84460   8.729   5.931   4.668
26889SOL    HW184461   8.643   5.881   4.655
26889SOL    HW284462   8.791   5.877   4.724
26890SOL     OW84463   9.024   7.248   4.031
26890SOL    HW184464   9.113   7.294   4.034
26890SOL    HW284465   9.003   7.224   3.936
26891SOL     OW84466   8.255   6.191   5.189
26891SOL    HW184467   8.208   6.188   5.278
26891SOL    HW284468   8.204   6.136   5.123
26892SOL     OW84469   8.842   6.055   5.398
26892SOL    HW184470   8.822   6.098   5.486
26892SOL    HW284471   8.920   5.993   5.407
26893SOL     OW84472   8.421   6.476   5.296
26893SOL    HW184473   8.467   6.392   5.267
26893SOL    HW284474   8.365   6.510   5.221
26894SOL     OW84475   8.439   5.996   4.966
26894SOL    HW184476   8.362   6.030   5.020
26894SOL    HW284477   8.405   5.945   4.887
26895SOL     OW84478   8.489   6.287   4.153
26895SOL    HW184479   8.515   6.283   4.249
26895SOL    HW284480   8.404   6.236   4.139
26896SOL     OW84481   7.524   6.397   4.513
26896SOL    HW184482   7.623   6.385   4.522
26896SOL    HW284483   7.500   6.492   4.534
26897SOL     OW84484   7.578   7.407   5.295
26897SOL    HW184485   7.568   7.392   5.394
26897SOL    HW284486   7.492   7.443   5.259
26898SOL     OW84487   8.810   6.730   4.269
26898SOL    HW184488   8.893   6.701   4.221
26898SOL    HW284489   8.761   6.797   4.213
26899SOL     OW84490   7.998   5.782   4.609
26899SOL    HW184491   7.993   5.777   4.709
26899SOL    HW284492   8.000   5.878   4.580
26900SOL     OW84493   7.799   7.387   4.577
26900SOL    HW184494   7.849   7.301   4.583
26900SOL    HW284495   7.864   7.464   4.574
26901SOL     OW84496   8.675   7.136   5.230
26901SOL    HW184497   8.681   7.059   5.294
26901SOL    HW284498   8.623   7.110   5.150
26902SOL     OW84499   7.769   6.529   3.966
26902SOL    HW184500   7.851   6.568   3.924
26902SOL    HW284501   7.742   6.447   3.917
26903SOL     OW84502   8.906   6.321   4.452
26903SOL    HW184503   8.901   6.256   4.527
26903SOL    HW284504   8.986   6.380   4.465
26904SOL     OW84505   7.909   6.852   5.451
26904SOL    HW184506   7.859   6.853   5.365
26904SOL    HW284507   7.846   6.834   5.527
26905SOL     OW84508   8.559   7.362   3.961
26905SOL    HW184509   8.499   7.300   4.011
26905SOL    HW284510   8.590   7.318   3.876
26906SOL     OW84511   7.650   5.871   5.222
26906SOL    HW184512   7.570   5.931   5.209
26906SOL    HW284513   7.640   5.822   5.308
26907SOL     OW84514   9.080   6.963   3.805
26907SOL    HW184515   9.048   7.057   3.795
26907SOL    HW284516   9.004   6.900   3.793
26908SOL     OW84517   7.912   7.329   4.047
26908SOL    HW184518   7.945   7.368   4.133
26908SOL    HW284519   7.988   7.322   3.982
26909SOL     OW84520   8.848   5.693   4.150
26909SOL    HW184521   8.824   5.656   4.060
26909SOL    HW284522   8.947   5.709   4.154
26910SOL     OW84523   7.697   7.371   4.965
26910SOL    HW184524   7.754   7.306   5.015
26910SOL    HW284525   7.681   7.338   4.872
26911SOL     OW84526   7.830   6.286   4.204
26911SOL    HW184527   7.875   6.196   4.201
26911SOL    HW284528   7.736   6.275   4.237
26912SOL     OW84529   8.995   5.808   5.453
26912SOL    HW184530   8.990   5.845   5.545
26912SOL    HW284531   8.923   5.739   5.441
26913SOL     OW84532   8.062   5.708   3.841
26913SOL    HW184533   8.160   5.686   3.848
26913SOL    HW284534   8.031   5.691   3.748
26914SOL     OW84535   8.229   5.850   5.473
26914SOL    HW184536   8.296   5.789   5.516
26914SOL    HW284537   8.156   5.869   5.538
26915SOL     OW84538   8.799   6.176   5.157
26915SOL    HW184539   8.827   6.133   5.242
26915SOL    HW284540   8.824   6.272   5.158
26916SOL     OW84541   8.370   6.089   4.623
26916SOL    HW184542   8.345   6.080   4.527
26916SOL    HW284543   8.418   6.007   4.654
26917SOL     OW84544   7.987   5.650   4.236
26917SOL    HW184545   7.906   5.651   4.294
26917SOL    HW284546   7.990   5.733   4.181
26918SOL     OW84547   8.882   6.774   3.765
26918SOL    HW184548   8.914   6.698   3.822
26918SOL    HW284549   8.790   6.801   3.795
26919SOL     OW84550   7.745   5.621   3.895
26919SOL    HW184551   7.794   5.705   3.874
26919SOL    HW284552   7.807   5.556   3.940
26920SOL     OW84553   8.383   5.822   4.204
26920SOL    HW184554   8.335   5.863   4.126
26920SOL    HW284555   8.482   5.820   4.185
26921SOL     OW84556   8.524   6.269   5.188
26921SOL    HW184557   8.444   6.208   5.191
26921SOL    HW284558   8.605   6.216   5.164
26922SOL     OW84559   7.907   6.738   4.465
26922SOL    HW184560   7.836   6.711   4.530
26922SOL    HW284561   7.881   6.710   4.372
26923SOL     OW84562   8.719   7.383   4.315
26923SOL    HW184563   8.763   7.447   4.251
26923SOL    HW284564   8.669   7.435   4.385
26924SOL     OW84565   7.526   6.142   5.110
26924SOL    HW184566   7.618   6.141   5.069
26924SOL    HW284567   7.520   6.216   5.177
26925SOL     OW84568   8.314   6.040   4.366
26925SOL    HW184569   8.282   6.112   4.304
26925SOL    HW284570   8.338   5.959   4.313
26926SOL     OW84571   8.465   5.625   4.477
26926SOL    HW184572   8.393   5.630   4.408
26926SOL    HW284573   8.441   5.556   4.546
26927SOL     OW84574   8.877   6.759   4.591
26927SOL    HW184575   8.822   6.675   4.584
26927SOL    HW284576   8.903   6.788   4.499
26928SOL     OW84577   8.914   6.176   4.716
26928SOL    HW184578   8.884   6.081   4.723
26928SOL    HW284579   8.987   6.192   4.782
26929SOL     OW84580   9.305   6.419   4.101
26929SOL    HW184581   9.347   6.355   4.165
26929SOL    HW284582   9.267   6.368   4.023
26930SOL     OW84583   7.936   6.971   3.898
26930SOL    HW184584   7.849   6.956   3.945
26930SOL    HW284585   7.919   6.997   3.803
26931SOL     OW84586   9.112   6.866   4.381
26931SOL    HW184587   9.211   6.874   4.395
26931SOL    HW284588   9.067   6.950   4.412
26932SOL     OW84589   8.838   6.161   3.802
26932SOL    HW184590   8.784   6.140   3.883
26932SOL    HW284591   8.929   6.120   3.811
26933SOL     OW84592   7.975   5.842   4.052
26933SOL    HW184593   8.002   5.783   3.977
26933SOL    HW284594   7.975   5.937   4.021
26934SOL     OW84595   9.202   6.809   5.312
26934SOL    HW184596   9.293   6.770   5.299
26934SOL    HW284597   9.210   6.905   5.336
26935SOL     OW84598   8.512   6.933   5.064
26935SOL    HW184599   8.432   6.910   5.119
26935SOL    HW284600   8.595   6.907   5.113
26936SOL     OW84601   9.040   7.215   5.349
26936SOL    HW184602   9.067   7.249   5.259
26936SOL    HW284603   9.119   7.177   5.395
26937SOL     OW84604   8.559   6.781   4.824
26937SOL    HW184605   8.519   6.825   4.905
26937SOL    HW284606   8.518   6.818   4.741
26938SOL     OW84607   9.086   6.685   4.803
26938SOL    HW184608   9.091   6.766   4.862
26938SOL    HW284609   9.000   6.687   4.752
26939SOL     OW84610   8.428   6.702   5.443
26939SOL    HW184611   8.329   6.708   5.453
26939SOL    HW284612   8.451   6.622   5.387
26940SOL     OW84613   8.153   6.636   4.092
26940SOL    HW184614   8.139   6.643   4.191
26940SOL    HW284615   8.237   6.585   4.074
26941SOL     OW84616   7.858   6.399   4.975
26941SOL    HW184617   7.944   6.411   5.025
26941SOL    HW284618   7.816   6.312   5.002
26942SOL     OW84619   8.722   5.972   4.986
26942SOL    HW184620   8.743   6.046   5.050
26942SOL    HW284621   8.633   5.989   4.943
26943SOL     OW84622   7.512   7.150   5.055
26943SOL    HW184623   7.466   7.232   5.021
26943SOL    HW284624   7.610   7.169   5.064
26944SOL     OW84625   7.815   6.686   4.225
26944SOL    HW184626   7.808   6.769   4.169
26944SOL    HW284627   7.819   6.606   4.165
26945SOL     OW84628   8.014   6.123   4.589
26945SOL    HW184629   8.026   6.189   4.515
26945SOL    HW284630   8.060   6.157   4.672
26946SOL     OW84631   8.720   7.031   4.866
26946SOL    HW184632   8.767   7.044   4.953
26946SOL    HW284633   8.654   6.957   4.875
26947SOL     OW84634   9.030   6.225   4.196
26947SOL    HW184635   8.999   6.286   4.269
26947SOL    HW284636   9.080   6.277   4.127
26948SOL     OW84637   7.802   7.096   5.053
26948SOL    HW184638   7.781   7.052   4.966
26948SOL    HW284639   7.899   7.122   5.056
26949SOL     OW84640   7.850   6.337   5.322
26949SOL    HW184641   7.918   6.392   5.275
26949SOL    HW284642   7.890   6.249   5.349
26950SOL     OW84643   8.461   5.691   5.494
26950SOL    HW184644   8.467   5.776   5.442
26950SOL    HW284645   8.493   5.615   5.437
26951SOL     OW84646   7.952   5.636   5.464
26951SOL    HW184647   7.910   5.579   5.394
26951SOL    HW284648   7.886   5.705   5.496
26952SOL     OW84649   8.021   6.456   4.753
26952SOL    HW184650   8.065   6.545   4.744
26952SOL    HW284651   7.958   6.456   4.830
26953SOL     OW84652   8.808   6.448   4.769
26953SOL    HW184653   8.733   6.448   4.703
26953SOL    HW284654   8.845   6.356   4.778
26954SOL     OW84655   8.657   6.111   3.999
26954SOL    HW184656   8.670   6.027   4.053
26954SOL    HW284657   8.628   6.185   4.059
26955SOL     OW84658   7.755   5.799   4.955
26955SOL    HW184659   7.732   5.836   5.045
26955SOL    HW284660   7.725   5.704   4.949
26956SOL     OW84661   7.485   6.896   5.006
26956SOL    HW184662   7.538   6.847   5.074
26956SOL    HW284663   7.507   6.994   5.011
26957SOL     OW84664   8.180   6.220   4.788
26957SOL    HW184665   8.239   6.194   4.712
26957SOL    HW284666   8.152   6.316   4.777
26958SOL     OW84667   7.755   5.649   4.342
26958SOL    HW184668   7.744   5.743   4.375
26958SOL    HW284669   7.750   5.586   4.419
26959SOL     OW84670   9.070   5.953   4.098
26959SOL    HW184671   9.072   5.877   4.162
26959SOL    HW284672   9.022   6.030   4.138
26960SOL     OW84673   8.471   6.352   4.690
26960SOL    HW184674   8.486   6.373   4.786
26960SOL    HW284675   8.441   6.257   4.681
26961SOL     OW84676   8.428   7.159   5.424
26961SOL    HW184677   8.408   7.203   5.336
26961SOL    HW284678   8.467   7.068   5.408
26962SOL     OW84679   9.307   7.104   5.329
26962SOL    HW184680   9.321   7.131   5.234
26962SOL    HW284681   9.390   7.126   5.382
26963SOL     OW84682   7.798   6.484   5.528
26963SOL    HW184683   7.874   6.528   5.576
26963SOL    HW284684   7.833   6.437   5.446
26964SOL     OW84685   8.988   5.860   3.849
26964SOL    HW184686   8.927   5.785   3.872
26964SOL    HW284687   9.010   5.912   3.932
26965SOL     OW84688   8.751   6.424   3.766
26965SOL    HW184689   8.785   6.331   3.781
26965SOL    HW284690   8.769   6.451   3.671
26966SOL     OW84691   8.516   6.919   4.573
26966SOL    HW184692   8.523   6.835   4.518
26966SOL    HW284693   8.578   6.988   4.537
26967SOL     OW84694   7.767   6.396   4.673
26967SOL    HW184695   7.860   6.432   4.678
26967SOL    HW284696   7.761   6.311   4.725
26968SOL     OW84697   7.787   6.095   4.730
26968SOL    HW184698   7.735   6.012   4.713
26968SOL    HW284699   7.864   6.100   4.666
26969SOL     OW84700   8.586   5.966   5.402
26969SOL    HW184701   8.541   6.029   5.466
26969SOL    HW284702   8.679   5.997   5.385
26970SOL     OW84703   7.456   6.912   3.924
26970SOL    HW184704   7.363   6.933   3.893
26970SOL    HW284705   7.466   6.813   3.937
26971SOL     OW84706   7.536   7.387   4.651
26971SOL    HW184707   7.494   7.301   4.624
26971SOL    HW284708   7.630   7.390   4.617
26972SOL     OW84709   7.952   7.154   4.634
26972SOL    HW184710   8.018   7.228   4.643
26972SOL    HW284711   7.996   7.075   4.592
26973SOL     OW84712   8.450   6.382   4.962
26973SOL    HW184713   8.491   6.350   5.048
26973SOL    HW284714   8.354   6.355   4.959
26974SOL     OW84715   7.488   6.130   4.838
26974SOL    HW184716   7.573   6.097   4.797
26974SOL    HW284717   7.501   6.145   4.936
26975SOL     OW84718   7.637   6.106   5.446
26975SOL    HW184719   7.696   6.066   5.376
26975SOL    HW284720   7.579   6.177   5.405
26976SOL     OW84721   8.817   6.536   5.384
26976SOL    HW184722   8.856   6.625   5.404
26976SOL    HW284723   8.827   6.516   5.287
26977SOL     OW84724   8.263   6.158   4.049
26977SOL    HW184725   8.270   6.069   4.003
26977SOL    HW284726   8.169   6.192   4.041
26978SOL     OW84727   9.105   6.190   4.930
26978SOL    HW184728   9.067   6.121   4.992
26978SOL    HW284729   9.187   6.154   4.886
26979SOL     OW84730   7.700   7.150   5.468
26979SOL    HW184731   7.670   7.207   5.544
26979SOL    HW284732   7.693   7.053   5.494
26980SOL     OW84733   8.119   6.050   4.993
26980SOL    HW184734   8.085   5.961   4.963
26980SOL    HW284735   8.145   6.104   4.913
26981SOL     OW84736   8.378   7.264   5.189
26981SOL    HW184737   8.354   7.246   5.094
26981SOL    HW284738   8.408   7.358   5.199
26982SOL     OW84739   7.921   6.086   3.915
26982SOL    HW184740   7.982   6.166   3.919
26982SOL    HW284741   7.826   6.117   3.922
26983SOL     OW84742   7.607   6.723   5.190
26983SOL    HW184743   7.629   6.662   5.266
26983SOL    HW284744   7.617   6.674   5.104
26984SOL     OW84745   8.795   6.645   4.958
26984SOL    HW184746   8.819   6.582   4.884
26984SOL    HW284747   8.705   6.685   4.940
26985SOL     OW84748   8.750   6.441   4.033
26985SOL    HW184749   8.664   6.410   4.075
26985SOL    HW284750   8.746   6.427   3.934
26986SOL     OW84751   9.207   7.333   4.878
26986SOL    HW184752   9.268   7.363   4.805
26986SOL    HW284753   9.169   7.244   4.856
26987SOL     OW84754   8.700   7.317   4.852
26987SOL    HW184755   8.784   7.322   4.798
26987SOL    HW284756   8.677   7.221   4.870
26988SOL     OW84757   7.531   6.844   4.746
26988SOL    HW184758   7.526   6.843   4.846
26988SOL    HW284759   7.448   6.803   4.708
26989SOL     OW84760   8.136   7.248   5.440
26989SOL    HW184761   8.080   7.329   5.449
26989SOL    HW284762   8.188   7.252   5.354
26990SOL     OW84763   9.174   5.721   4.247
26990SOL    HW184764   9.247   5.704   4.180
26990SOL    HW284765   9.143   5.634   4.285
26991SOL     OW84766   8.836   7.159   4.201
26991SOL    HW184767   8.903   7.171   4.127
26991SOL    HW284768   8.796   7.248   4.224
26992SOL     OW84769   7.578   7.380   5.575
26992SOL    HW184770   7.537   7.306   5.628
26992SOL    HW284771   7.642   7.431   5.633
26993SOL     OW84772   8.728   6.513   4.396
26993SOL    HW184773   8.788   6.432   4.398
26993SOL    HW284774   8.768   6.582   4.336
26994SOL     OW84775   8.278   6.859   5.146
26994SOL    HW184776   8.273   6.892   5.241
26994SOL    HW284777   8.192   6.878   5.100
26995SOL     OW84778   8.120   7.202   3.878
26995SOL    HW184779   8.129   7.212   3.779
26995SOL    HW284780   8.080   7.113   3.899
26996SOL     OW84781   9.098   7.306   5.118
26996SOL    HW184782   9.151   7.316   5.034
26996SOL    HW284783   9.071   7.396   5.152
26997SOL     OW84784   9.289   5.761   4.687
26997SOL    HW184785   9.328   5.676   4.651
26997SOL    HW284786   9.191   5.763   4.668
26998SOL     OW84787   7.711   5.912   4.444
26998SOL    HW184788   7.632   5.963   4.410
26998SOL    HW284789   7.702   5.897   4.542
26999SOL     OW84790   8.642   7.198   3.755
26999SOL    HW184791   8.648   7.105   3.792
26999SOL    HW284792   8.583   7.198   3.675
27000SOL     OW84793   8.270   6.588   5.096
27000SOL    HW184794   8.310   6.587   5.004
27000SOL    HW284795   8.280   6.680   5.136
27001SOL     OW84796   8.364   6.496   4.015
27001SOL    HW184797   8.427   6.534   3.947
27001SOL    HW284798   8.404   6.413   4.054
27002SOL     OW84799   8.952   7.193   3.768
27002SOL    HW184800   8.860   7.230   3.775
27002SOL    HW284801   8.990   7.213   3.678
27003SOL     OW84802   7.820   6.874   5.214
27003SOL    HW184803   7.807   6.967   5.180
27003SOL    HW284804   7.736   6.822   5.201
27004SOL     OW84805   9.062   6.878   5.013
27004SOL    HW184806   9.122   6.881   5.093
27004SOL    HW284807   8.987   6.942   5.026
27005SOL     OW84808   8.487   6.684   4.420
27005SOL    HW184809   8.417   6.637   4.474
27005SOL    HW284810   8.546   6.616   4.377
27006SOL     OW84811   8.462   5.822   4.695
27006SOL    HW184812   8.454   5.786   4.602
27006SOL    HW284813   8.460   5.746   4.760
27007SOL     OW84814   8.038   7.073   4.215
27007SOL    HW184815   8.080   7.015   4.145
27007SOL    HW284816   7.994   7.152   4.171
27008SOL     OW84817   9.157   5.971   5.105
27008SOL    HW184818   9.230   6.040   5.109
27008SOL    HW284819   9.185   5.896   5.046
27009SOL     OW84820   7.703   6.934   4.014
27009SOL    HW184821   7.607   6.935   3.987
27009SOL    HW284822   7.715   6.987   4.098
27010SOL     OW84823   7.553   6.599   5.450
27010SOL    HW184824   7.476   6.566   5.504
27010SOL    HW284825   7.638   6.569   5.492
27011SOL     OW84826   8.120   5.789   5.213
27011SOL    HW184827   8.210   5.773   5.173
27011SOL    HW284828   8.128   5.794   5.312
27012SOL     OW84829   7.523   5.931   3.757
27012SOL    HW184830   7.431   5.903   3.728
27012SOL    HW284831   7.554   6.008   3.701
27013SOL     OW84832   8.888   6.442   5.122
27013SOL    HW184833   8.831   6.494   5.059
27013SOL    HW284834   8.984   6.454   5.098
27014SOL     OW84835   7.520   5.752   4.042
27014SOL    HW184836   7.503   5.835   3.988
27014SOL    HW284837   7.610   5.715   4.020
27015SOL     OW84838   8.631   6.921   3.843
27015SOL    HW184839   8.532   6.910   3.845
27015SOL    HW284840   8.665   6.936   3.936
27016SOL     OW84841   8.061   6.428   5.155
27016SOL    HW184842   8.117   6.509   5.138
27016SOL    HW284843   8.120   6.348   5.158
27017SOL     OW84844   8.941   7.353   4.683
27017SOL    HW184845   8.974   7.417   4.614
27017SOL    HW284846   9.007   7.347   4.758
27018SOL     OW84847   8.164   6.151   5.432
27018SOL    HW184848   8.183   6.216   5.506
27018SOL    HW284849   8.224   6.071   5.441
27019SOL     OW84850   8.898   6.806   5.357
27019SOL    HW184851   8.889   6.796   5.456
27019SOL    HW284852   8.994   6.799   5.331
27020SOL     OW84853   7.838   7.327   5.284
27020SOL    HW184854   7.747   7.368   5.282
27020SOL    HW284855   7.831   7.233   5.316
27021SOL     OW84856   9.122   6.469   4.978
27021SOL    HW184857   9.095   6.380   4.941
27021SOL    HW284858   9.123   6.537   4.905
27022SOL     OW84859   8.673   5.911   4.173
27022SOL    HW184860   8.738   5.837   4.162
27022SOL    HW284861   8.693   5.961   4.257
27023SOL     OW84862   8.042   6.331   4.376
27023SOL    HW184863   8.092   6.416   4.357
27023SOL    HW284864   7.954   6.333   4.328
27024SOL     OW84865   9.225   5.928   5.366
27024SOL    HW184866   9.208   5.959   5.272
27024SOL    HW284867   9.141   5.891   5.404
27025SOL     OW84868   9.178   6.520   5.241
27025SOL    HW184869   9.216   6.611   5.256
27025SOL    HW284870   9.170   6.503   5.142
27026SOL     OW84871   8.109   7.376   4.677
27026SOL    HW184872   8.063   7.464   4.664
27026SOL    HW284873   8.208   7.388   4.670
27027SOL     OW84874   8.307   6.542   4.585
27027SOL    HW184875   8.361   6.473   4.633
27027SOL    HW284876   8.275   6.611   4.651
27028SOL     OW84877   8.531   6.570   3.811
27028SOL    HW184878   8.508   6.623   3.729
27028SOL    HW284879   8.612   6.514   3.792
27029SOL     OW84880   9.309   7.155   4.575
27029SOL    HW184881   9.238   7.143   4.505
27029SOL    HW284882   9.310   7.076   4.635
27030SOL     OW84883   7.669   6.900   5.568
27030SOL    HW184884   7.604   6.827   5.547
27030SOL    HW284885   7.673   6.914   5.666
27031SOL     OW84886   7.527   6.826   4.377
27031SOL    HW184887   7.526   6.779   4.465
27031SOL    HW284888   7.609   6.798   4.326
27032SOL     OW84889   8.120   6.977   5.348
27032SOL    HW184890   8.042   6.927   5.386
27032SOL    HW284891   8.117   7.072   5.379
27033SOL     OW84892   9.272   5.778   4.951
27033SOL    HW184893   9.268   5.688   4.995
27033SOL    HW284894   9.275   5.767   4.852
27034SOL     OW84895   7.876   6.010   4.244
27034SOL    HW184896   7.906   5.938   4.182
27034SOL    HW284897   7.837   5.970   4.327
27035SOL     OW84898   9.153   7.073   4.828
27035SOL    HW184899   9.060   7.048   4.801
27035SOL    HW284900   9.179   7.023   4.910
27036SOL     OW84901   7.765   6.133   5.004
27036SOL    HW184902   7.803   6.074   5.076
27036SOL    HW284903   7.805   6.107   4.916
27037SOL     OW84904   8.872   5.800   4.836
27037SOL    HW184905   8.924   5.735   4.891
27037SOL    HW284906   8.823   5.863   4.897
27038SOL     OW84907   8.748   6.039   4.415
27038SOL    HW184908   8.689   6.119   4.419
27038SOL    HW284909   8.763   6.004   4.508
27039SOL     OW84910   9.041   5.807   4.606
27039SOL    HW184911   8.957   5.806   4.660
27039SOL    HW284912   9.043   5.890   4.550
27040SOL     OW84913   7.487   6.663   4.024
27040SOL    HW184914   7.586   6.652   4.015
27040SOL    HW284915   7.447   6.577   4.056
27041SOL     OW84916   8.323   7.232   4.061
27041SOL    HW184917   8.246   7.197   4.007
27041SOL    HW284918   8.291   7.303   4.123
27042SOL     OW84919   7.678   6.214   5.699
27042SOL    HW184920   7.585   6.212   5.736
27042SOL    HW284921   7.679   6.175   5.607
27043SOL     OW84922   7.673   5.861   6.582
27043SOL    HW184923   7.708   5.844   6.674
27043SOL    HW284924   7.585   5.816   6.570
27044SOL     OW84925   7.467   5.954   6.233
27044SOL    HW184926   7.385   5.997   6.272
27044SOL    HW284927   7.439   5.881   6.170
27045SOL     OW84928   9.003   7.097   6.289
27045SOL    HW184929   8.946   7.081   6.370
27045SOL    HW284930   8.944   7.107   6.209
27046SOL     OW84931   8.583   6.289   6.303
27046SOL    HW184932   8.640   6.367   6.278
27046SOL    HW284933   8.523   6.315   6.379
27047SOL     OW84934   8.216   6.730   6.609
27047SOL    HW184935   8.138   6.747   6.669
27047SOL    HW284936   8.250   6.817   6.573
27048SOL     OW84937   8.133   6.598   6.251
27048SOL    HW184938   8.202   6.582   6.321
27048SOL    HW284939   8.060   6.655   6.289
27049SOL     OW84940   8.134   6.747   7.389
27049SOL    HW184941   8.194   6.826   7.403
27049SOL    HW284942   8.048   6.778   7.348
27050SOL     OW84943   7.783   7.021   6.647
27050SOL    HW184944   7.705   6.990   6.594
27050SOL    HW284945   7.841   7.079   6.590
27051SOL     OW84946   8.908   7.091   6.925
27051SOL    HW184947   8.932   7.185   6.951
27051SOL    HW284948   8.892   7.037   7.007
27052SOL     OW84949   7.886   5.978   7.085
27052SOL    HW184950   7.968   5.922   7.094
27052SOL    HW284951   7.805   5.920   7.089
27053SOL     OW84952   9.051   6.033   6.323
27053SOL    HW184953   8.977   6.079   6.273
27053SOL    HW284954   9.102   6.101   6.376
27054SOL     OW84955   7.679   7.299   6.069
27054SOL    HW184956   7.713   7.376   6.123
27054SOL    HW284957   7.723   7.299   5.979
27055SOL     OW84958   8.575   6.927   7.276
27055SOL    HW184959   8.622   6.927   7.364
27055SOL    HW284960   8.527   6.840   7.265
27056SOL     OW84961   7.678   7.020   6.124
27056SOL    HW184962   7.652   7.116   6.124
27056SOL    HW284963   7.607   6.966   6.169
27057SOL     OW84964   7.688   6.677   6.472
27057SOL    HW184965   7.702   6.593   6.524
27057SOL    HW284966   7.633   6.741   6.527
27058SOL     OW84967   8.054   6.550   5.709
27058SOL    HW184968   8.061   6.634   5.655
27058SOL    HW284969   8.100   6.563   5.797
27059SOL     OW84970   9.042   5.700   7.066
27059SOL    HW184971   9.024   5.767   6.994
27059SOL    HW284972   9.039   5.746   7.155
27060SOL     OW84973   7.570   6.229   6.149
27060SOL    HW184974   7.525   6.141   6.166
27060SOL    HW284975   7.569   6.283   6.233
27061SOL     OW84976   9.290   7.353   5.945
27061SOL    HW184977   9.344   7.324   6.025
27061SOL    HW284978   9.320   7.443   5.916
27062SOL     OW84979   7.475   7.182   5.703
27062SOL    HW184980   7.456   7.086   5.724
27062SOL    HW284981   7.442   7.240   5.778
27063SOL     OW84982   7.561   6.323   7.183
27063SOL    HW184983   7.649   6.310   7.228
27063SOL    HW284984   7.548   6.420   7.161
27064SOL     OW84985   8.061   6.951   6.312
27064SOL    HW184986   8.012   6.864   6.321
27064SOL    HW284987   8.038   6.994   6.225
27065SOL     OW84988   8.741   6.814   7.009
27065SOL    HW184989   8.778   6.741   6.951
27065SOL    HW284990   8.793   6.819   7.094
27066SOL     OW84991   8.257   5.590   6.088
27066SOL    HW184992   8.297   5.681   6.079
27066SOL    HW284993   8.157   5.598   6.094
27067SOL     OW84994   7.645   6.562   6.850
27067SOL    HW184995   7.734   6.517   6.836
27067SOL    HW284996   7.572   6.497   6.831
27068SOL     OW84997   8.635   7.378   7.202
27068SOL    HW184998   8.659   7.438   7.126
27068SOL    HW284999   8.642   7.283   7.172
27069SOL     OW85000   7.765   5.837   7.387
27069SOL    HW185001   7.836   5.908   7.393
27069SOL    HW285002   7.677   5.876   7.415
27070SOL     OW85003   8.914   7.003   6.539
27070SOL    HW185004   8.855   7.009   6.619
27070SOL    HW285005   8.899   6.915   6.493
27071SOL     OW85006   9.115   7.300   6.158
27071SOL    HW185007   9.074   7.277   6.070
27071SOL    HW285008   9.097   7.226   6.223
27072SOL     OW85009   8.046   6.315   5.856
27072SOL    HW185010   8.070   6.384   5.788
27072SOL    HW285011   7.968   6.348   5.910
27073SOL     OW85012   8.729   5.931   6.530
27073SOL    HW185013   8.643   5.881   6.517
27073SOL    HW285014   8.791   5.877   6.586
27074SOL     OW85015   9.024   7.248   5.893
27074SOL    HW185016   9.113   7.294   5.896
27074SOL    HW285017   9.003   7.224   5.798
27075SOL     OW85018   8.255   6.191   7.051
27075SOL    HW185019   8.208   6.188   7.140
27075SOL    HW285020   8.204   6.136   6.985
27076SOL     OW85021   8.842   6.055   7.260
27076SOL    HW185022   8.822   6.098   7.348
27076SOL    HW285023   8.920   5.993   7.269
27077SOL     OW85024   8.439   5.996   6.828
27077SOL    HW185025   8.362   6.030   6.882
27077SOL    HW285026   8.405   5.945   6.749
27078SOL     OW85027   8.489   6.287   6.015
27078SOL    HW185028   8.515   6.283   6.111
27078SOL    HW285029   8.404   6.236   6.001
27079SOL     OW85030   7.524   6.397   6.375
27079SOL    HW185031   7.623   6.385   6.384
27079SOL    HW285032   7.500   6.492   6.396
27080SOL     OW85033   7.578   7.407   7.157
27080SOL    HW185034   7.568   7.392   7.256
27080SOL    HW285035   7.492   7.443   7.121
27081SOL     OW85036   8.313   5.934   5.781
27081SOL    HW185037   8.372   5.997   5.732
27081SOL    HW285038   8.332   5.840   5.752
27082SOL     OW85039   9.167   6.171   7.417
27082SOL    HW185040   9.141   6.260   7.381
27082SOL    HW285041   9.165   6.103   7.344
27083SOL     OW85042   8.810   6.730   6.131
27083SOL    HW185043   8.893   6.701   6.083
27083SOL    HW285044   8.761   6.797   6.075
27084SOL     OW85045   7.998   5.782   6.471
27084SOL    HW185046   7.993   5.777   6.571
27084SOL    HW285047   8.000   5.878   6.442
27085SOL     OW85048   7.799   7.387   6.439
27085SOL    HW185049   7.849   7.301   6.445
27085SOL    HW285050   7.864   7.464   6.436
27086SOL     OW85051   8.675   7.136   7.092
27086SOL    HW185052   8.681   7.059   7.156
27086SOL    HW285053   8.623   7.110   7.012
27087SOL     OW85054   7.769   6.529   5.828
27087SOL    HW185055   7.851   6.568   5.786
27087SOL    HW285056   7.742   6.447   5.779
27088SOL     OW85057   7.909   6.852   7.313
27088SOL    HW185058   7.859   6.853   7.227
27088SOL    HW285059   7.846   6.834   7.389
27089SOL     OW85060   7.650   5.871   7.084
27089SOL    HW185061   7.570   5.931   7.071
27089SOL    HW285062   7.640   5.822   7.170
27090SOL     OW85063   9.080   6.963   5.667
27090SOL    HW185064   9.048   7.057   5.657
27090SOL    HW285065   9.004   6.900   5.655
27091SOL     OW85066   7.912   7.329   5.909
27091SOL    HW185067   7.945   7.368   5.995
27091SOL    HW285068   7.988   7.322   5.844
27092SOL     OW85069   8.848   5.693   6.012
27092SOL    HW185070   8.824   5.656   5.922
27092SOL    HW285071   8.947   5.709   6.016
27093SOL     OW85072   7.697   7.371   6.827
27093SOL    HW185073   7.754   7.306   6.877
27093SOL    HW285074   7.681   7.338   6.734
27094SOL     OW85075   8.388   7.284   6.490
27094SOL    HW185076   8.468   7.227   6.511
27094SOL    HW285077   8.339   7.244   6.413
27095SOL     OW85078   7.830   6.286   6.066
27095SOL    HW185079   7.875   6.196   6.063
27095SOL    HW285080   7.736   6.275   6.099
27096SOL     OW85081   8.995   5.808   7.315
27096SOL    HW185082   8.990   5.845   7.407
27096SOL    HW285083   8.923   5.739   7.303
27097SOL     OW85084   8.062   5.708   5.703
27097SOL    HW185085   8.160   5.686   5.710
27097SOL    HW285086   8.031   5.691   5.610
27098SOL     OW85087   8.229   5.850   7.335
27098SOL    HW185088   8.296   5.789   7.378
27098SOL    HW285089   8.156   5.869   7.400
27099SOL     OW85090   8.336   7.100   6.781
27099SOL    HW185091   8.313   7.075   6.687
27099SOL    HW285092   8.397   7.031   6.820
27100SOL     OW85093   8.799   6.176   7.019
27100SOL    HW185094   8.827   6.133   7.104
27100SOL    HW285095   8.824   6.272   7.020
27101SOL     OW85096   8.251   6.988   6.510
27101SOL    HW185097   8.341   7.002   6.468
27101SOL    HW285098   8.180   6.990   6.439
27102SOL     OW85099   8.370   6.089   6.485
27102SOL    HW185100   8.345   6.080   6.389
27102SOL    HW285101   8.418   6.007   6.516
27103SOL     OW85102   7.987   5.650   6.098
27103SOL    HW185103   7.906   5.651   6.156
27103SOL    HW285104   7.990   5.733   6.043
27104SOL     OW85105   8.882   6.774   5.627
27104SOL    HW185106   8.914   6.698   5.684
27104SOL    HW285107   8.790   6.801   5.657
27105SOL     OW85108   7.745   5.621   5.757
27105SOL    HW185109   7.794   5.705   5.736
27105SOL    HW285110   7.807   5.556   5.802
27106SOL     OW85111   8.383   5.822   6.066
27106SOL    HW185112   8.335   5.863   5.988
27106SOL    HW285113   8.482   5.820   6.047
27107SOL     OW85114   8.675   7.156   6.379
27107SOL    HW185115   8.696   7.230   6.314
27107SOL    HW285116   8.743   7.156   6.452
27108SOL     OW85117   7.907   6.738   6.327
27108SOL    HW185118   7.836   6.711   6.392
27108SOL    HW285119   7.881   6.710   6.234
27109SOL     OW85120   8.719   7.383   6.177
27109SOL    HW185121   8.763   7.447   6.113
27109SOL    HW285122   8.669   7.435   6.247
27110SOL     OW85123   8.480   6.135   5.602
27110SOL    HW185124   8.439   6.217   5.563
27110SOL    HW285125   8.544   6.161   5.675
27111SOL     OW85126   7.526   6.142   6.972
27111SOL    HW185127   7.618   6.141   6.931
27111SOL    HW285128   7.520   6.216   7.039
27112SOL     OW85129   8.009   5.808   6.733
27112SOL    HW185130   8.047   5.724   6.770
27112SOL    HW285131   7.921   5.827   6.777
27113SOL     OW85132   8.314   6.040   6.228
27113SOL    HW185133   8.282   6.112   6.166
27113SOL    HW285134   8.338   5.959   6.175
27114SOL     OW85135   8.465   5.625   6.339
27114SOL    HW185136   8.393   5.630   6.270
27114SOL    HW285137   8.441   5.556   6.408
27115SOL     OW85138   8.877   6.759   6.453
27115SOL    HW185139   8.822   6.675   6.446
27115SOL    HW285140   8.903   6.788   6.361
27116SOL     OW85141   8.914   6.176   6.578
27116SOL    HW185142   8.884   6.081   6.585
27116SOL    HW285143   8.987   6.192   6.644
27117SOL     OW85144   7.936   6.971   5.760
27117SOL    HW185145   7.849   6.956   5.807
27117SOL    HW285146   7.919   6.997   5.665
27118SOL     OW85147   9.112   6.866   6.243
27118SOL    HW185148   9.211   6.874   6.257
27118SOL    HW285149   9.067   6.950   6.274
27119SOL     OW85150   7.975   5.842   5.914
27119SOL    HW185151   8.002   5.783   5.839
27119SOL    HW285152   7.975   5.937   5.883
27120SOL     OW85153   9.202   6.809   7.174
27120SOL    HW185154   9.293   6.770   7.161
27120SOL    HW285155   9.210   6.905   7.198
27121SOL     OW85156   8.512   6.933   6.926
27121SOL    HW185157   8.432   6.910   6.981
27121SOL    HW285158   8.595   6.907   6.975
27122SOL     OW85159   9.040   7.215   7.211
27122SOL    HW185160   9.067   7.249   7.121
27122SOL    HW285161   9.119   7.177   7.257
27123SOL     OW85162   8.559   6.781   6.686
27123SOL    HW185163   8.519   6.825   6.767
27123SOL    HW285164   8.518   6.818   6.603
27124SOL     OW85165   8.363   5.675   6.988
27124SOL    HW185166   8.388   5.655   6.893
27124SOL    HW285167   8.435   5.731   7.030
27125SOL     OW85168   8.153   6.636   5.954
27125SOL    HW185169   8.139   6.643   6.053
27125SOL    HW285170   8.237   6.585   5.936
27126SOL     OW85171   7.858   6.399   6.837
27126SOL    HW185172   7.944   6.411   6.887
27126SOL    HW285173   7.816   6.312   6.864
27127SOL     OW85174   8.722   5.972   6.848
27127SOL    HW185175   8.743   6.046   6.912
27127SOL    HW285176   8.633   5.989   6.805
27128SOL     OW85177   7.512   7.150   6.917
27128SOL    HW185178   7.466   7.232   6.883
27128SOL    HW285179   7.610   7.169   6.926
27129SOL     OW85180   7.815   6.686   6.087
27129SOL    HW185181   7.808   6.769   6.031
27129SOL    HW285182   7.819   6.606   6.027
27130SOL     OW85183   8.014   6.123   6.451
27130SOL    HW185184   8.026   6.189   6.377
27130SOL    HW285185   8.060   6.157   6.534
27131SOL     OW85186   8.700   6.934   5.974
27131SOL    HW185187   8.750   7.011   6.014
27131SOL    HW285188   8.605   6.936   6.006
27132SOL     OW85189   8.720   7.031   6.728
27132SOL    HW185190   8.767   7.044   6.815
27132SOL    HW285191   8.654   6.957   6.737
27133SOL     OW85192   7.850   6.337   7.184
27133SOL    HW185193   7.918   6.392   7.137
27133SOL    HW285194   7.890   6.249   7.211
27134SOL     OW85195   9.035   6.365   7.256
27134SOL    HW185196   8.943   6.403   7.251
27134SOL    HW285197   9.095   6.412   7.191
27135SOL     OW85198   8.461   5.691   7.356
27135SOL    HW185199   8.467   5.776   7.304
27135SOL    HW285200   8.493   5.615   7.299
27136SOL     OW85201   7.952   5.636   7.326
27136SOL    HW185202   7.910   5.579   7.256
27136SOL    HW285203   7.886   5.705   7.358
27137SOL     OW85204   8.021   6.456   6.615
27137SOL    HW185205   8.065   6.545   6.606
27137SOL    HW285206   7.958   6.456   6.692
27138SOL     OW85207   8.808   6.448   6.631
27138SOL    HW185208   8.733   6.448   6.565
27138SOL    HW285209   8.845   6.356   6.640
27139SOL     OW85210   8.657   6.111   5.861
27139SOL    HW185211   8.670   6.027   5.915
27139SOL    HW285212   8.628   6.185   5.921
27140SOL     OW85213   7.755   5.799   6.817
27140SOL    HW185214   7.732   5.836   6.907
27140SOL    HW285215   7.725   5.704   6.811
27141SOL     OW85216   7.485   6.896   6.868
27141SOL    HW185217   7.538   6.847   6.936
27141SOL    HW285218   7.507   6.994   6.873
27142SOL     OW85219   8.180   6.220   6.650
27142SOL    HW185220   8.239   6.194   6.574
27142SOL    HW285221   8.152   6.316   6.639
27143SOL     OW85222   9.176   6.521   7.440
27143SOL    HW185223   9.130   6.514   7.351
27143SOL    HW285224   9.114   6.565   7.506
27144SOL     OW85225   7.755   5.649   6.204
27144SOL    HW185226   7.744   5.743   6.237
27144SOL    HW285227   7.750   5.586   6.281
27145SOL     OW85228   9.070   5.953   5.960
27145SOL    HW185229   9.072   5.877   6.024
27145SOL    HW285230   9.022   6.030   6.000
27146SOL     OW85231   8.471   6.352   6.552
27146SOL    HW185232   8.486   6.373   6.648
27146SOL    HW285233   8.441   6.257   6.543
27147SOL     OW85234   9.307   7.104   7.191
27147SOL    HW185235   9.321   7.131   7.096
27147SOL    HW285236   9.390   7.126   7.244
27148SOL     OW85237   7.798   6.484   7.390
27148SOL    HW185238   7.874   6.528   7.438
27148SOL    HW285239   7.833   6.437   7.308
27149SOL     OW85240   8.751   6.424   5.628
27149SOL    HW185241   8.785   6.331   5.643
27149SOL    HW285242   8.769   6.451   5.533
27150SOL     OW85243   8.516   6.919   6.435
27150SOL    HW185244   8.523   6.835   6.380
27150SOL    HW285245   8.578   6.988   6.399
27151SOL     OW85246   7.767   6.396   6.535
27151SOL    HW185247   7.860   6.432   6.540
27151SOL    HW285248   7.761   6.311   6.587
27152SOL     OW85249   7.787   6.095   6.592
27152SOL    HW185250   7.735   6.012   6.575
27152SOL    HW285251   7.864   6.100   6.528
27153SOL     OW85252   8.586   5.966   7.264
27153SOL    HW185253   8.541   6.029   7.328
27153SOL    HW285254   8.679   5.997   7.247
27154SOL     OW85255   8.608   5.793   7.063
27154SOL    HW185256   8.608   5.857   7.140
27154SOL    HW285257   8.636   5.841   6.980
27155SOL     OW85258   7.456   6.912   5.786
27155SOL    HW185259   7.363   6.933   5.755
27155SOL    HW285260   7.466   6.813   5.799
27156SOL     OW85261   7.536   7.387   6.513
27156SOL    HW185262   7.494   7.301   6.486
27156SOL    HW285263   7.630   7.390   6.479
27157SOL     OW85264   7.952   7.154   6.496
27157SOL    HW185265   8.018   7.228   6.505
27157SOL    HW285266   7.996   7.075   6.454
27158SOL     OW85267   7.488   6.130   6.700
27158SOL    HW185268   7.573   6.097   6.659
27158SOL    HW285269   7.501   6.145   6.798
27159SOL     OW85270   7.637   6.106   7.308
27159SOL    HW185271   7.696   6.066   7.238
27159SOL    HW285272   7.579   6.177   7.267
27160SOL     OW85273   8.817   6.536   7.246
27160SOL    HW185274   8.856   6.625   7.266
27160SOL    HW285275   8.827   6.516   7.149
27161SOL     OW85276   8.263   6.158   5.911
27161SOL    HW185277   8.270   6.069   5.865
27161SOL    HW285278   8.169   6.192   5.903
27162SOL     OW85279   9.105   6.190   6.792
27162SOL    HW185280   9.067   6.121   6.854
27162SOL    HW285281   9.187   6.154   6.748
27163SOL     OW85282   7.700   7.150   7.330
27163SOL    HW185283   7.670   7.207   7.406
27163SOL    HW285284   7.693   7.053   7.356
27164SOL     OW85285   8.119   6.050   6.855
27164SOL    HW185286   8.085   5.961   6.825
27164SOL    HW285287   8.145   6.104   6.775
27165SOL     OW85288   8.378   7.264   7.051
27165SOL    HW185289   8.354   7.246   6.956
27165SOL    HW285290   8.408   7.358   7.061
27166SOL     OW85291   7.921   6.086   5.777
27166SOL    HW185292   7.982   6.166   5.781
27166SOL    HW285293   7.826   6.117   5.784
27167SOL     OW85294   7.607   6.723   7.052
27167SOL    HW185295   7.629   6.662   7.128
27167SOL    HW285296   7.617   6.674   6.966
27168SOL     OW85297   8.795   6.645   6.820
27168SOL    HW185298   8.819   6.582   6.746
27168SOL    HW285299   8.705   6.685   6.802
27169SOL     OW85300   8.750   6.441   5.895
27169SOL    HW185301   8.664   6.410   5.937
27169SOL    HW285302   8.746   6.427   5.796
27170SOL     OW85303   9.207   7.333   6.740
27170SOL    HW185304   9.268   7.363   6.667
27170SOL    HW285305   9.169   7.244   6.718
27171SOL     OW85306   8.700   7.317   6.714
27171SOL    HW185307   8.784   7.322   6.660
27171SOL    HW285308   8.677   7.221   6.732
27172SOL     OW85309   7.531   6.844   6.608
27172SOL    HW185310   7.526   6.843   6.708
27172SOL    HW285311   7.448   6.803   6.570
27173SOL     OW85312   9.174   5.721   6.109
27173SOL    HW185313   9.247   5.704   6.042
27173SOL    HW285314   9.143   5.634   6.147
27174SOL     OW85315   8.836   7.159   6.063
27174SOL    HW185316   8.903   7.171   5.989
27174SOL    HW285317   8.796   7.248   6.086
27175SOL     OW85318   7.578   7.380   7.437
27175SOL    HW185319   7.537   7.306   7.490
27175SOL    HW285320   7.642   7.431   7.495
27176SOL     OW85321   8.728   6.513   6.258
27176SOL    HW185322   8.788   6.432   6.260
27176SOL    HW285323   8.768   6.582   6.198
27177SOL     OW85324   8.120   7.202   5.740
27177SOL    HW185325   8.129   7.212   5.641
27177SOL    HW285326   8.080   7.113   5.761
27178SOL     OW85327   9.098   7.306   6.980
27178SOL    HW185328   9.151   7.316   6.896
27178SOL    HW285329   9.071   7.396   7.014
27179SOL     OW85330   9.289   5.761   6.549
27179SOL    HW185331   9.328   5.676   6.513
27179SOL    HW285332   9.191   5.763   6.530
27180SOL     OW85333   7.711   5.912   6.306
27180SOL    HW185334   7.632   5.963   6.272
27180SOL    HW285335   7.702   5.897   6.404
27181SOL     OW85336   8.642   7.198   5.617
27181SOL    HW185337   8.648   7.105   5.654
27181SOL    HW285338   8.583   7.198   5.537
27182SOL     OW85339   8.364   6.496   5.877
27182SOL    HW185340   8.427   6.534   5.809
27182SOL    HW285341   8.404   6.413   5.916
27183SOL     OW85342   8.952   7.193   5.630
27183SOL    HW185343   8.860   7.230   5.637
27183SOL    HW285344   8.990   7.213   5.540
27184SOL     OW85345   8.487   6.684   6.282
27184SOL    HW185346   8.417   6.637   6.336
27184SOL    HW285347   8.546   6.616   6.239
27185SOL     OW85348   8.462   5.822   6.557
27185SOL    HW185349   8.454   5.786   6.464
27185SOL    HW285350   8.460   5.746   6.622
27186SOL     OW85351   8.038   7.073   6.077
27186SOL    HW185352   8.080   7.015   6.007
27186SOL    HW285353   7.994   7.152   6.033
27187SOL     OW85354   9.157   5.971   6.967
27187SOL    HW185355   9.230   6.040   6.971
27187SOL    HW285356   9.185   5.896   6.908
27188SOL     OW85357   7.703   6.934   5.876
27188SOL    HW185358   7.607   6.935   5.849
27188SOL    HW285359   7.715   6.987   5.960
27189SOL     OW85360   7.553   6.599   7.312
27189SOL    HW185361   7.476   6.566   7.366
27189SOL    HW285362   7.638   6.569   7.354
27190SOL     OW85363   8.120   5.789   7.075
27190SOL    HW185364   8.210   5.773   7.035
27190SOL    HW285365   8.128   5.794   7.174
27191SOL     OW85366   7.523   5.931   5.619
27191SOL    HW185367   7.431   5.903   5.590
27191SOL    HW285368   7.554   6.008   5.563
27192SOL     OW85369   8.888   6.442   6.984
27192SOL    HW185370   8.831   6.494   6.921
27192SOL    HW285371   8.984   6.454   6.960
27193SOL     OW85372   7.520   5.752   5.904
27193SOL    HW185373   7.503   5.835   5.850
27193SOL    HW285374   7.610   5.715   5.882
27194SOL     OW85375   8.631   6.921   5.705
27194SOL    HW185376   8.532   6.910   5.707
27194SOL    HW285377   8.665   6.936   5.798
27195SOL     OW85378   8.061   6.428   7.017
27195SOL    HW185379   8.117   6.509   7.000
27195SOL    HW285380   8.120   6.348   7.020
27196SOL     OW85381   8.941   7.353   6.545
27196SOL    HW185382   8.974   7.417   6.476
27196SOL    HW285383   9.007   7.347   6.620
27197SOL     OW85384   8.164   6.151   7.294
27197SOL    HW185385   8.183   6.216   7.368
27197SOL    HW285386   8.224   6.071   7.303
27198SOL     OW85387   8.898   6.806   7.219
27198SOL    HW185388   8.889   6.796   7.318
27198SOL    HW285389   8.994   6.799   7.193
27199SOL     OW85390   7.838   7.327   7.146
27199SOL    HW185391   7.747   7.368   7.144
27199SOL    HW285392   7.831   7.233   7.178
27200SOL     OW85393   9.122   6.469   6.840
27200SOL    HW185394   9.095   6.380   6.803
27200SOL    HW285395   9.123   6.537   6.767
27201SOL     OW85396   8.673   5.911   6.035
27201SOL    HW185397   8.738   5.837   6.024
27201SOL    HW285398   8.693   5.961   6.119
27202SOL     OW85399   8.042   6.331   6.238
27202SOL    HW185400   8.092   6.416   6.219
27202SOL    HW285401   7.954   6.333   6.190
27203SOL     OW85402   9.225   5.928   7.228
27203SOL    HW185403   9.208   5.959   7.134
27203SOL    HW285404   9.141   5.891   7.266
27204SOL     OW85405   9.178   6.520   7.103
27204SOL    HW185406   9.216   6.611   7.118
27204SOL    HW285407   9.170   6.503   7.004
27205SOL     OW85408   8.307   6.960   5.602
27205SOL    HW185409   8.261   6.975   5.690
27205SOL    HW285410   8.351   7.045   5.572
27206SOL     OW85411   8.109   7.376   6.539
27206SOL    HW185412   8.063   7.464   6.526
27206SOL    HW285413   8.208   7.388   6.532
27207SOL     OW85414   8.307   6.542   6.447
27207SOL    HW185415   8.361   6.473   6.495
27207SOL    HW285416   8.275   6.611   6.513
27208SOL     OW85417   8.531   6.570   5.673
27208SOL    HW185418   8.508   6.623   5.591
27208SOL    HW285419   8.612   6.514   5.654
27209SOL     OW85420   9.309   7.155   6.437
27209SOL    HW185421   9.238   7.143   6.367
27209SOL    HW285422   9.310   7.076   6.497
27210SOL     OW85423   7.669   6.900   7.430
27210SOL    HW185424   7.604   6.827   7.409
27210SOL    HW285425   7.673   6.914   7.528
27211SOL     OW85426   7.527   6.826   6.239
27211SOL    HW185427   7.526   6.779   6.327
27211SOL    HW285428   7.609   6.798   6.188
27212SOL     OW85429   9.272   5.778   6.813
27212SOL    HW185430   9.268   5.688   6.857
27212SOL    HW285431   9.275   5.767   6.714
27213SOL     OW85432   7.876   6.010   6.106
27213SOL    HW185433   7.906   5.938   6.044
27213SOL    HW285434   7.837   5.970   6.189
27214SOL     OW85435   9.153   7.073   6.690
27214SOL    HW185436   9.060   7.048   6.663
27214SOL    HW285437   9.179   7.023   6.772
27215SOL     OW85438   7.765   6.133   6.866
27215SOL    HW185439   7.803   6.074   6.938
27215SOL    HW285440   7.805   6.107   6.778
27216SOL     OW85441   8.872   5.800   6.698
27216SOL    HW185442   8.924   5.735   6.753
27216SOL    HW285443   8.823   5.863   6.759
27217SOL     OW85444   8.449   5.620   6.740
27217SOL    HW185445   8.386   5.548   6.709
27217SOL    HW285446   8.542   5.584   6.740
27218SOL     OW85447   8.218   6.916   5.887
27218SOL    HW185448   8.172   6.829   5.904
27218SOL    HW285449   8.309   6.913   5.928
27219SOL     OW85450   8.800   5.638   5.754
27219SOL    HW185451   8.835   5.597   5.670
27219SOL    HW285452   8.710   5.600   5.774
27220SOL     OW85453   8.748   6.039   6.277
27220SOL    HW185454   8.689   6.119   6.281
27220SOL    HW285455   8.763   6.004   6.370
27221SOL     OW85456   9.041   5.807   6.468
27221SOL    HW185457   8.957   5.806   6.522
27221SOL    HW285458   9.043   5.890   6.412
27222SOL     OW85459   7.487   6.663   5.886
27222SOL    HW185460   7.586   6.652   5.877
27222SOL    HW285461   7.447   6.577   5.918
27223SOL     OW85462   7.678   6.214   7.561
27223SOL    HW185463   7.585   6.212   7.598
27223SOL    HW285464   7.679   6.175   7.469
27224SOL     OW85465   7.673   5.861   8.444
27224SOL    HW185466   7.708   5.844   8.536
27224SOL    HW285467   7.585   5.816   8.432
27225SOL     OW85468   7.467   5.954   8.095
27225SOL    HW185469   7.385   5.997   8.134
27225SOL    HW285470   7.439   5.881   8.032
27226SOL     OW85471   8.017   6.861   8.613
27226SOL    HW185472   7.924   6.854   8.576
27226SOL    HW285473   8.028   6.950   8.657
27227SOL     OW85474   9.003   7.097   8.151
27227SOL    HW185475   8.946   7.081   8.232
27227SOL    HW285476   8.944   7.107   8.071
27228SOL     OW85477   8.583   6.289   8.165
27228SOL    HW185478   8.640   6.367   8.140
27228SOL    HW285479   8.523   6.315   8.241
27229SOL     OW85480   9.203   6.193   7.679
27229SOL    HW185481   9.191   6.180   7.580
27229SOL    HW285482   9.173   6.112   7.728
27230SOL     OW85483   8.216   6.730   8.471
27230SOL    HW185484   8.138   6.747   8.531
27230SOL    HW285485   8.250   6.817   8.435
27231SOL     OW85486   8.298   6.384   9.271
27231SOL    HW185487   8.294   6.460   9.336
27231SOL    HW285488   8.320   6.420   9.180
27232SOL     OW85489   8.134   6.747   9.251
27232SOL    HW185490   8.194   6.826   9.265
27232SOL    HW285491   8.048   6.778   9.210
27233SOL     OW85492   7.783   7.021   8.509
27233SOL    HW185493   7.705   6.990   8.456
27233SOL    HW285494   7.841   7.079   8.452
27234SOL     OW85495   8.908   7.091   8.787
27234SOL    HW185496   8.932   7.185   8.813
27234SOL    HW285497   8.892   7.037   8.869
27235SOL     OW85498   7.886   5.978   8.947
27235SOL    HW185499   7.968   5.922   8.956
27235SOL    HW285500   7.805   5.920   8.951
27236SOL     OW85501   9.051   6.033   8.185
27236SOL    HW185502   8.977   6.079   8.135
27236SOL    HW285503   9.102   6.101   8.238
27237SOL     OW85504   7.679   7.299   7.931
27237SOL    HW185505   7.713   7.376   7.985
27237SOL    HW285506   7.723   7.299   7.841
27238SOL     OW85507   8.575   6.927   9.138
27238SOL    HW185508   8.622   6.927   9.226
27238SOL    HW285509   8.527   6.840   9.127
27239SOL     OW85510   7.678   7.020   7.986
27239SOL    HW185511   7.652   7.116   7.986
27239SOL    HW285512   7.607   6.966   8.031
27240SOL     OW85513   7.688   6.677   8.334
27240SOL    HW185514   7.702   6.593   8.386
27240SOL    HW285515   7.633   6.741   8.389
27241SOL     OW85516   8.068   7.372   8.887
27241SOL    HW185517   7.976   7.355   8.922
27241SOL    HW285518   8.096   7.464   8.913
27242SOL     OW85519   8.054   6.550   7.571
27242SOL    HW185520   8.061   6.634   7.517
27242SOL    HW285521   8.100   6.563   7.659
27243SOL     OW85522   9.042   5.700   8.928
27243SOL    HW185523   9.024   5.767   8.856
27243SOL    HW285524   9.039   5.746   9.017
27244SOL     OW85525   7.570   6.229   8.011
27244SOL    HW185526   7.525   6.141   8.028
27244SOL    HW285527   7.569   6.283   8.095
27245SOL     OW85528   9.290   7.353   7.807
27245SOL    HW185529   9.344   7.324   7.887
27245SOL    HW285530   9.320   7.443   7.778
27246SOL     OW85531   7.475   7.182   7.565
27246SOL    HW185532   7.456   7.086   7.586
27246SOL    HW285533   7.442   7.240   7.640
27247SOL     OW85534   9.137   6.508   8.060
27247SOL    HW185535   9.232   6.479   8.068
27247SOL    HW285536   9.129   6.573   7.985
27248SOL     OW85537   9.089   6.694   7.880
27248SOL    HW185538   9.175   6.696   7.828
27248SOL    HW285539   9.103   6.741   7.968
27249SOL     OW85540   7.561   6.323   9.045
27249SOL    HW185541   7.649   6.310   9.090
27249SOL    HW285542   7.548   6.420   9.023
27250SOL     OW85543   8.061   6.951   8.174
27250SOL    HW185544   8.012   6.864   8.183
27250SOL    HW285545   8.038   6.994   8.087
27251SOL     OW85546   8.741   6.814   8.871
27251SOL    HW185547   8.778   6.741   8.813
27251SOL    HW285548   8.793   6.819   8.956
27252SOL     OW85549   8.257   5.590   7.950
27252SOL    HW185550   8.297   5.681   7.941
27252SOL    HW285551   8.157   5.598   7.956
27253SOL     OW85552   7.645   6.562   8.712
27253SOL    HW185553   7.734   6.517   8.698
27253SOL    HW285554   7.572   6.497   8.693
27254SOL     OW85555   8.973   6.585   7.638
27254SOL    HW185556   8.910   6.509   7.651
27254SOL    HW285557   9.021   6.603   7.724
27255SOL     OW85558   8.635   7.378   9.064
27255SOL    HW185559   8.659   7.438   8.988
27255SOL    HW285560   8.642   7.283   9.034
27256SOL     OW85561   7.765   5.837   9.249
27256SOL    HW185562   7.836   5.908   9.255
27256SOL    HW285563   7.677   5.876   9.277
27257SOL     OW85564   8.914   7.003   8.401
27257SOL    HW185565   8.855   7.009   8.481
27257SOL    HW285566   8.899   6.915   8.355
27258SOL     OW85567   9.115   7.300   8.020
27258SOL    HW185568   9.074   7.277   7.932
27258SOL    HW285569   9.097   7.226   8.085
27259SOL     OW85570   8.046   6.315   7.718
27259SOL    HW185571   8.070   6.384   7.650
27259SOL    HW285572   7.968   6.348   7.772
27260SOL     OW85573   8.729   5.931   8.392
27260SOL    HW185574   8.643   5.881   8.379
27260SOL    HW285575   8.791   5.877   8.448
27261SOL     OW85576   9.024   7.248   7.755
27261SOL    HW185577   9.113   7.294   7.758
27261SOL    HW285578   9.003   7.224   7.660
27262SOL     OW85579   8.255   6.191   8.913
27262SOL    HW185580   8.208   6.188   9.002
27262SOL    HW285581   8.204   6.136   8.847
27263SOL     OW85582   8.842   6.055   9.122
27263SOL    HW185583   8.822   6.098   9.210
27263SOL    HW285584   8.920   5.993   9.131
27264SOL     OW85585   8.421   6.476   9.020
27264SOL    HW185586   8.467   6.392   8.991
27264SOL    HW285587   8.365   6.510   8.945
27265SOL     OW85588   8.439   5.996   8.690
27265SOL    HW185589   8.362   6.030   8.744
27265SOL    HW285590   8.405   5.945   8.611
27266SOL     OW85591   8.489   6.287   7.877
27266SOL    HW185592   8.515   6.283   7.973
27266SOL    HW285593   8.404   6.236   7.863
27267SOL     OW85594   7.524   6.397   8.237
27267SOL    HW185595   7.623   6.385   8.246
27267SOL    HW285596   7.500   6.492   8.258
27268SOL     OW85597   7.578   7.407   9.019
27268SOL    HW185598   7.568   7.392   9.118
27268SOL    HW285599   7.492   7.443   8.983
27269SOL     OW85600   8.313   5.934   7.643
27269SOL    HW185601   8.372   5.997   7.594
27269SOL    HW285602   8.332   5.840   7.614
27270SOL     OW85603   9.167   6.171   9.279
27270SOL    HW185604   9.141   6.260   9.243
27270SOL    HW285605   9.165   6.103   9.206
27271SOL     OW85606   8.810   6.730   7.993
27271SOL    HW185607   8.893   6.701   7.945
27271SOL    HW285608   8.761   6.797   7.937
27272SOL     OW85609   7.998   5.782   8.333
27272SOL    HW185610   7.993   5.777   8.433
27272SOL    HW285611   8.000   5.878   8.304
27273SOL     OW85612   8.456   7.042   7.925
27273SOL    HW185613   8.410   7.114   7.873
27273SOL    HW285614   8.452   7.062   8.023
27274SOL     OW85615   7.799   7.387   8.301
27274SOL    HW185616   7.849   7.301   8.307
27274SOL    HW285617   7.864   7.464   8.298
27275SOL     OW85618   9.243   6.652   8.321
27275SOL    HW185619   9.181   6.637   8.245
27275SOL    HW285620   9.191   6.663   8.406
27276SOL     OW85621   8.675   7.136   8.954
27276SOL    HW185622   8.681   7.059   9.018
27276SOL    HW285623   8.623   7.110   8.874
27277SOL     OW85624   7.769   6.529   7.690
27277SOL    HW185625   7.851   6.568   7.648
27277SOL    HW285626   7.742   6.447   7.641
27278SOL     OW85627   8.906   6.321   8.176
27278SOL    HW185628   8.901   6.256   8.251
27278SOL    HW285629   8.986   6.380   8.189
27279SOL     OW85630   7.909   6.852   9.175
27279SOL    HW185631   7.859   6.853   9.089
27279SOL    HW285632   7.846   6.834   9.251
27280SOL     OW85633   8.559   7.362   7.685
27280SOL    HW185634   8.499   7.300   7.735
27280SOL    HW285635   8.590   7.318   7.600
27281SOL     OW85636   7.650   5.871   8.946
27281SOL    HW185637   7.570   5.931   8.933
27281SOL    HW285638   7.640   5.822   9.032
27282SOL     OW85639   9.080   6.963   7.529
27282SOL    HW185640   9.048   7.057   7.519
27282SOL    HW285641   9.004   6.900   7.517
27283SOL     OW85642   7.912   7.329   7.771
27283SOL    HW185643   7.945   7.368   7.857
27283SOL    HW285644   7.988   7.322   7.706
27284SOL     OW85645   8.848   5.693   7.874
27284SOL    HW185646   8.824   5.656   7.784
27284SOL    HW285647   8.947   5.709   7.878
27285SOL     OW85648   7.697   7.371   8.689
27285SOL    HW185649   7.754   7.306   8.739
27285SOL    HW285650   7.681   7.338   8.596
27286SOL     OW85651   8.388   7.284   8.352
27286SOL    HW185652   8.468   7.227   8.373
27286SOL    HW285653   8.339   7.244   8.275
27287SOL     OW85654   8.995   5.808   9.177
27287SOL    HW185655   8.990   5.845   9.269
27287SOL    HW285656   8.923   5.739   9.165
27288SOL     OW85657   8.062   5.708   7.565
27288SOL    HW185658   8.160   5.686   7.572
27288SOL    HW285659   8.031   5.691   7.472
27289SOL     OW85660   8.229   5.850   9.197
27289SOL    HW185661   8.296   5.789   9.240
27289SOL    HW285662   8.156   5.869   9.262
27290SOL     OW85663   8.336   7.100   8.643
27290SOL    HW185664   8.313   7.075   8.549
27290SOL    HW285665   8.397   7.031   8.682
27291SOL     OW85666   8.799   6.176   8.881
27291SOL    HW185667   8.827   6.133   8.966
27291SOL    HW285668   8.824   6.272   8.882
27292SOL     OW85669   8.251   6.988   8.372
27292SOL    HW185670   8.341   7.002   8.330
27292SOL    HW285671   8.180   6.990   8.301
27293SOL     OW85672   8.370   6.089   8.347
27293SOL    HW185673   8.345   6.080   8.251
27293SOL    HW285674   8.418   6.007   8.378
27294SOL     OW85675   7.987   5.650   7.960
27294SOL    HW185676   7.906   5.651   8.018
27294SOL    HW285677   7.990   5.733   7.905
27295SOL     OW85678   8.882   6.774   7.489
27295SOL    HW185679   8.914   6.698   7.546
27295SOL    HW285680   8.790   6.801   7.519
27296SOL     OW85681   7.745   5.621   7.619
27296SOL    HW185682   7.794   5.705   7.598
27296SOL    HW285683   7.807   5.556   7.664
27297SOL     OW85684   8.383   5.822   7.928
27297SOL    HW185685   8.335   5.863   7.850
27297SOL    HW285686   8.482   5.820   7.909
27298SOL     OW85687   8.524   6.269   8.912
27298SOL    HW185688   8.444   6.208   8.915
27298SOL    HW285689   8.605   6.216   8.888
27299SOL     OW85690   8.675   7.156   8.241
27299SOL    HW185691   8.696   7.230   8.176
27299SOL    HW285692   8.743   7.156   8.314
27300SOL     OW85693   8.719   7.383   8.039
27300SOL    HW185694   8.763   7.447   7.975
27300SOL    HW285695   8.669   7.435   8.109
27301SOL     OW85696   8.480   6.135   7.464
27301SOL    HW185697   8.439   6.217   7.425
27301SOL    HW285698   8.544   6.161   7.537
27302SOL     OW85699   7.526   6.142   8.834
27302SOL    HW185700   7.618   6.141   8.793
27302SOL    HW285701   7.520   6.216   8.901
27303SOL     OW85702   8.009   5.808   8.595
27303SOL    HW185703   8.047   5.724   8.632
27303SOL    HW285704   7.921   5.827   8.639
27304SOL     OW85705   8.314   6.040   8.090
27304SOL    HW185706   8.282   6.112   8.028
27304SOL    HW285707   8.338   5.959   8.037
27305SOL     OW85708   8.465   5.625   8.201
27305SOL    HW185709   8.393   5.630   8.132
27305SOL    HW285710   8.441   5.556   8.270
27306SOL     OW85711   8.877   6.759   8.315
27306SOL    HW185712   8.822   6.675   8.308
27306SOL    HW285713   8.903   6.788   8.223
27307SOL     OW85714   8.914   6.176   8.440
27307SOL    HW185715   8.884   6.081   8.447
27307SOL    HW285716   8.987   6.192   8.506
27308SOL     OW85717   9.305   6.419   7.825
27308SOL    HW185718   9.347   6.355   7.889
27308SOL    HW285719   9.267   6.368   7.747
27309SOL     OW85720   7.936   6.971   7.622
27309SOL    HW185721   7.849   6.956   7.669
27309SOL    HW285722   7.919   6.997   7.527
27310SOL     OW85723   9.112   6.866   8.105
27310SOL    HW185724   9.211   6.874   8.119
27310SOL    HW285725   9.067   6.950   8.136
27311SOL     OW85726   8.838   6.161   7.526
27311SOL    HW185727   8.784   6.140   7.607
27311SOL    HW285728   8.929   6.120   7.535
27312SOL     OW85729   7.975   5.842   7.776
27312SOL    HW185730   8.002   5.783   7.701
27312SOL    HW285731   7.975   5.937   7.745
27313SOL     OW85732   9.202   6.809   9.036
27313SOL    HW185733   9.293   6.770   9.023
27313SOL    HW285734   9.210   6.905   9.060
27314SOL     OW85735   8.512   6.933   8.788
27314SOL    HW185736   8.432   6.910   8.843
27314SOL    HW285737   8.595   6.907   8.837
27315SOL     OW85738   9.040   7.215   9.073
27315SOL    HW185739   9.067   7.249   8.983
27315SOL    HW285740   9.119   7.177   9.119
27316SOL     OW85741   8.559   6.781   8.548
27316SOL    HW185742   8.519   6.825   8.629
27316SOL    HW285743   8.518   6.818   8.465
27317SOL     OW85744   9.086   6.685   8.527
27317SOL    HW185745   9.091   6.766   8.586
27317SOL    HW285746   9.000   6.687   8.476
27318SOL     OW85747   8.363   5.675   8.850
27318SOL    HW185748   8.388   5.655   8.755
27318SOL    HW285749   8.435   5.731   8.892
27319SOL     OW85750   8.428   6.702   9.167
27319SOL    HW185751   8.329   6.708   9.177
27319SOL    HW285752   8.451   6.622   9.111
27320SOL     OW85753   7.858   6.399   8.699
27320SOL    HW185754   7.944   6.411   8.749
27320SOL    HW285755   7.816   6.312   8.726
27321SOL     OW85756   8.722   5.972   8.710
27321SOL    HW185757   8.743   6.046   8.774
27321SOL    HW285758   8.633   5.989   8.667
27322SOL     OW85759   7.512   7.150   8.779
27322SOL    HW185760   7.466   7.232   8.745
27322SOL    HW285761   7.610   7.169   8.788
27323SOL     OW85762   8.014   6.123   8.313
27323SOL    HW185763   8.026   6.189   8.239
27323SOL    HW285764   8.060   6.157   8.396
27324SOL     OW85765   8.700   6.934   7.836
27324SOL    HW185766   8.750   7.011   7.876
27324SOL    HW285767   8.605   6.936   7.868
27325SOL     OW85768   8.720   7.031   8.590
27325SOL    HW185769   8.767   7.044   8.677
27325SOL    HW285770   8.654   6.957   8.599
27326SOL     OW85771   9.030   6.225   7.920
27326SOL    HW185772   8.999   6.286   7.993
27326SOL    HW285773   9.080   6.277   7.851
27327SOL     OW85774   7.802   7.096   8.777
27327SOL    HW185775   7.781   7.052   8.690
27327SOL    HW285776   7.899   7.122   8.780
27328SOL     OW85777   7.850   6.337   9.046
27328SOL    HW185778   7.918   6.392   8.999
27328SOL    HW285779   7.890   6.249   9.073
27329SOL     OW85780   9.035   6.365   9.118
27329SOL    HW185781   8.943   6.403   9.113
27329SOL    HW285782   9.095   6.412   9.053
27330SOL     OW85783   7.952   5.636   9.188
27330SOL    HW185784   7.910   5.579   9.118
27330SOL    HW285785   7.886   5.705   9.220
27331SOL     OW85786   8.021   6.456   8.477
27331SOL    HW185787   8.065   6.545   8.468
27331SOL    HW285788   7.958   6.456   8.554
27332SOL     OW85789   8.808   6.448   8.493
27332SOL    HW185790   8.733   6.448   8.427
27332SOL    HW285791   8.845   6.356   8.502
27333SOL     OW85792   8.657   6.111   7.723
27333SOL    HW185793   8.670   6.027   7.777
27333SOL    HW285794   8.628   6.185   7.783
27334SOL     OW85795   7.755   5.799   8.679
27334SOL    HW185796   7.732   5.836   8.769
27334SOL    HW285797   7.725   5.704   8.673
27335SOL     OW85798   7.485   6.896   8.730
27335SOL    HW185799   7.538   6.847   8.798
27335SOL    HW285800   7.507   6.994   8.735
27336SOL     OW85801   8.180   6.220   8.512
27336SOL    HW185802   8.239   6.194   8.436
27336SOL    HW285803   8.152   6.316   8.501
27337SOL     OW85804   9.176   6.521   9.302
27337SOL    HW185805   9.130   6.514   9.213
27337SOL    HW285806   9.114   6.565   9.368
27338SOL     OW85807   7.755   5.649   8.066
27338SOL    HW185808   7.744   5.743   8.099
27338SOL    HW285809   7.750   5.586   8.143
27339SOL     OW85810   9.070   5.953   7.822
27339SOL    HW185811   9.072   5.877   7.886
27339SOL    HW285812   9.022   6.030   7.862
27340SOL     OW85813   8.471   6.352   8.414
27340SOL    HW185814   8.486   6.373   8.510
27340SOL    HW285815   8.441   6.257   8.405
27341SOL     OW85816   8.428   7.159   9.148
27341SOL    HW185817   8.408   7.203   9.060
27341SOL    HW285818   8.467   7.068   9.132
27342SOL     OW85819   9.307   7.104   9.053
27342SOL    HW185820   9.321   7.131   8.958
27342SOL    HW285821   9.390   7.126   9.106
27343SOL     OW85822   7.798   6.484   9.252
27343SOL    HW185823   7.874   6.528   9.300
27343SOL    HW285824   7.833   6.437   9.170
27344SOL     OW85825   8.988   5.860   7.573
27344SOL    HW185826   8.927   5.785   7.596
27344SOL    HW285827   9.010   5.912   7.656
27345SOL     OW85828   8.516   6.919   8.297
27345SOL    HW185829   8.523   6.835   8.242
27345SOL    HW285830   8.578   6.988   8.261
27346SOL     OW85831   7.787   6.095   8.454
27346SOL    HW185832   7.735   6.012   8.437
27346SOL    HW285833   7.864   6.100   8.390
27347SOL     OW85834   8.586   5.966   9.126
27347SOL    HW185835   8.541   6.029   9.190
27347SOL    HW285836   8.679   5.997   9.109
27348SOL     OW85837   7.456   6.912   7.648
27348SOL    HW185838   7.363   6.933   7.617
27348SOL    HW285839   7.466   6.813   7.661
27349SOL     OW85840   7.536   7.387   8.375
27349SOL    HW185841   7.494   7.301   8.348
27349SOL    HW285842   7.630   7.390   8.341
27350SOL     OW85843   7.952   7.154   8.358
27350SOL    HW185844   8.018   7.228   8.367
27350SOL    HW285845   7.996   7.075   8.316
27351SOL     OW85846   8.450   6.382   8.686
27351SOL    HW185847   8.491   6.350   8.772
27351SOL    HW285848   8.354   6.355   8.683
27352SOL     OW85849   7.488   6.130   8.562
27352SOL    HW185850   7.573   6.097   8.521
27352SOL    HW285851   7.501   6.145   8.660
27353SOL     OW85852   7.637   6.106   9.170
27353SOL    HW185853   7.696   6.066   9.100
27353SOL    HW285854   7.579   6.177   9.129
27354SOL     OW85855   8.817   6.536   9.108
27354SOL    HW185856   8.856   6.625   9.128
27354SOL    HW285857   8.827   6.516   9.011
27355SOL     OW85858   8.263   6.158   7.773
27355SOL    HW185859   8.270   6.069   7.727
27355SOL    HW285860   8.169   6.192   7.765
27356SOL     OW85861   9.105   6.190   8.654
27356SOL    HW185862   9.067   6.121   8.716
27356SOL    HW285863   9.187   6.154   8.610
27357SOL     OW85864   7.700   7.150   9.192
27357SOL    HW185865   7.670   7.207   9.268
27357SOL    HW285866   7.693   7.053   9.218
27358SOL     OW85867   8.119   6.050   8.717
27358SOL    HW185868   8.085   5.961   8.687
27358SOL    HW285869   8.145   6.104   8.637
27359SOL     OW85870   8.378   7.264   8.913
27359SOL    HW185871   8.354   7.246   8.818
27359SOL    HW285872   8.408   7.358   8.923
27360SOL     OW85873   7.921   6.086   7.639
27360SOL    HW185874   7.982   6.166   7.643
27360SOL    HW285875   7.826   6.117   7.646
27361SOL     OW85876   7.607   6.723   8.914
27361SOL    HW185877   7.629   6.662   8.990
27361SOL    HW285878   7.617   6.674   8.828
27362SOL     OW85879   8.795   6.645   8.682
27362SOL    HW185880   8.819   6.582   8.608
27362SOL    HW285881   8.705   6.685   8.664
27363SOL     OW85882   8.750   6.441   7.757
27363SOL    HW185883   8.664   6.410   7.799
27363SOL    HW285884   8.746   6.427   7.658
27364SOL     OW85885   9.207   7.333   8.602
27364SOL    HW185886   9.268   7.363   8.529
27364SOL    HW285887   9.169   7.244   8.580
27365SOL     OW85888   8.700   7.317   8.576
27365SOL    HW185889   8.784   7.322   8.522
27365SOL    HW285890   8.677   7.221   8.594
27366SOL     OW85891   7.531   6.844   8.470
27366SOL    HW185892   7.526   6.843   8.570
27366SOL    HW285893   7.448   6.803   8.432
27367SOL     OW85894   9.174   5.721   7.971
27367SOL    HW185895   9.247   5.704   7.904
27367SOL    HW285896   9.143   5.634   8.009
27368SOL     OW85897   8.836   7.159   7.925
27368SOL    HW185898   8.903   7.171   7.851
27368SOL    HW285899   8.796   7.248   7.948
27369SOL     OW85900   7.578   7.380   9.299
27369SOL    HW185901   7.537   7.306   9.352
27369SOL    HW285902   7.642   7.431   9.357
27370SOL     OW85903   8.728   6.513   8.120
27370SOL    HW185904   8.788   6.432   8.122
27370SOL    HW285905   8.768   6.582   8.060
27371SOL     OW85906   8.120   7.202   7.602
27371SOL    HW185907   8.129   7.212   7.503
27371SOL    HW285908   8.080   7.113   7.623
27372SOL     OW85909   9.098   7.306   8.842
27372SOL    HW185910   9.151   7.316   8.758
27372SOL    HW285911   9.071   7.396   8.876
27373SOL     OW85912   9.289   5.761   8.411
27373SOL    HW185913   9.328   5.676   8.375
27373SOL    HW285914   9.191   5.763   8.392
27374SOL     OW85915   7.711   5.912   8.168
27374SOL    HW185916   7.632   5.963   8.134
27374SOL    HW285917   7.702   5.897   8.266
27375SOL     OW85918   8.642   7.198   7.479
27375SOL    HW185919   8.648   7.105   7.516
27375SOL    HW285920   8.583   7.198   7.399
27376SOL     OW85921   8.270   6.588   8.820
27376SOL    HW185922   8.310   6.587   8.728
27376SOL    HW285923   8.280   6.680   8.860
27377SOL     OW85924   8.364   6.496   7.739
27377SOL    HW185925   8.427   6.534   7.671
27377SOL    HW285926   8.404   6.413   7.778
27378SOL     OW85927   8.952   7.193   7.492
27378SOL    HW185928   8.860   7.230   7.499
27378SOL    HW285929   8.990   7.213   7.402
27379SOL     OW85930   7.820   6.874   8.938
27379SOL    HW185931   7.807   6.967   8.904
27379SOL    HW285932   7.736   6.822   8.925
27380SOL     OW85933   9.062   6.878   8.737
27380SOL    HW185934   9.122   6.881   8.817
27380SOL    HW285935   8.987   6.942   8.750
27381SOL     OW85936   8.487   6.684   8.144
27381SOL    HW185937   8.417   6.637   8.198
27381SOL    HW285938   8.546   6.616   8.101
27382SOL     OW85939   8.462   5.822   8.419
27382SOL    HW185940   8.454   5.786   8.326
27382SOL    HW285941   8.460   5.746   8.484
27383SOL     OW85942   8.038   7.073   7.939
27383SOL    HW185943   8.080   7.015   7.869
27383SOL    HW285944   7.994   7.152   7.895
27384SOL     OW85945   9.157   5.971   8.829
27384SOL    HW185946   9.230   6.040   8.833
27384SOL    HW285947   9.185   5.896   8.770
27385SOL     OW85948   7.703   6.934   7.738
27385SOL    HW185949   7.607   6.935   7.711
27385SOL    HW285950   7.715   6.987   7.822
27386SOL     OW85951   7.553   6.599   9.174
27386SOL    HW185952   7.476   6.566   9.228
27386SOL    HW285953   7.638   6.569   9.216
27387SOL     OW85954   8.120   5.789   8.937
27387SOL    HW185955   8.210   5.773   8.897
27387SOL    HW285956   8.128   5.794   9.036
27388SOL     OW85957   7.523   5.931   7.481
27388SOL    HW185958   7.431   5.903   7.452
27388SOL    HW285959   7.554   6.008   7.425
27389SOL     OW85960   8.888   6.442   8.846
27389SOL    HW185961   8.831   6.494   8.783
27389SOL    HW285962   8.984   6.454   8.822
27390SOL     OW85963   7.520   5.752   7.766
27390SOL    HW185964   7.503   5.835   7.712
27390SOL    HW285965   7.610   5.715   7.744
27391SOL     OW85966   8.631   6.921   7.567
27391SOL    HW185967   8.532   6.910   7.569
27391SOL    HW285968   8.665   6.936   7.660
27392SOL     OW85969   8.061   6.428   8.879
27392SOL    HW185970   8.117   6.509   8.862
27392SOL    HW285971   8.120   6.348   8.882
27393SOL     OW85972   8.941   7.353   8.407
27393SOL    HW185973   8.974   7.417   8.338
27393SOL    HW285974   9.007   7.347   8.482
27394SOL     OW85975   8.164   6.151   9.156
27394SOL    HW185976   8.183   6.216   9.230
27394SOL    HW285977   8.224   6.071   9.165
27395SOL     OW85978   8.898   6.806   9.081
27395SOL    HW185979   8.889   6.796   9.180
27395SOL    HW285980   8.994   6.799   9.055
27396SOL     OW85981   9.122   6.469   8.702
27396SOL    HW185982   9.095   6.380   8.665
27396SOL    HW285983   9.123   6.537   8.629
27397SOL     OW85984   8.673   5.911   7.897
27397SOL    HW185985   8.738   5.837   7.886
27397SOL    HW285986   8.693   5.961   7.981
27398SOL     OW85987   9.225   5.928   9.090
27398SOL    HW185988   9.208   5.959   8.996
27398SOL    HW285989   9.141   5.891   9.128
27399SOL     OW85990   9.178   6.520   8.965
27399SOL    HW185991   9.216   6.611   8.980
27399SOL    HW285992   9.170   6.503   8.866
27400SOL     OW85993   8.307   6.960   7.464
27400SOL    HW185994   8.261   6.975   7.552
27400SOL    HW285995   8.351   7.045   7.434
27401SOL     OW85996   8.109   7.376   8.401
27401SOL    HW185997   8.063   7.464   8.388
27401SOL    HW285998   8.208   7.388   8.394
27402SOL     OW85999   8.307   6.542   8.309
27402SOL    HW186000   8.361   6.473   8.357
27402SOL    HW286001   8.275   6.611   8.375
27403SOL     OW86002   9.309   7.155   8.299
27403SOL    HW186003   9.238   7.143   8.229
27403SOL    HW286004   9.310   7.076   8.359
27404SOL     OW86005   7.669   6.900   9.292
27404SOL    HW186006   7.604   6.827   9.271
27404SOL    HW286007   7.673   6.914   9.390
27405SOL     OW86008   7.527   6.826   8.101
27405SOL    HW186009   7.526   6.779   8.189
27405SOL    HW286010   7.609   6.798   8.050
27406SOL     OW86011   9.272   5.778   8.675
27406SOL    HW186012   9.268   5.688   8.719
27406SOL    HW286013   9.275   5.767   8.576
27407SOL     OW86014   7.876   6.010   7.968
27407SOL    HW186015   7.906   5.938   7.906
27407SOL    HW286016   7.837   5.970   8.051
27408SOL     OW86017   9.153   7.073   8.552
27408SOL    HW186018   9.060   7.048   8.525
27408SOL    HW286019   9.179   7.023   8.634
27409SOL     OW86020   7.765   6.133   8.728
27409SOL    HW186021   7.803   6.074   8.800
27409SOL    HW286022   7.805   6.107   8.640
27410SOL     OW86023   8.260   7.172   8.135
27410SOL    HW186024   8.292   7.182   8.041
27410SOL    HW286025   8.181   7.110   8.137
27411SOL     OW86026   8.872   5.800   8.560
27411SOL    HW186027   8.924   5.735   8.615
27411SOL    HW286028   8.823   5.863   8.621
27412SOL     OW86029   8.449   5.620   8.602
27412SOL    HW186030   8.386   5.548   8.571
27412SOL    HW286031   8.542   5.584   8.602
27413SOL     OW86032   8.218   6.916   7.749
27413SOL    HW186033   8.172   6.829   7.766
27413SOL    HW286034   8.309   6.913   7.790
27414SOL     OW86035   8.066   7.153   8.732
27414SOL    HW186036   8.061   7.235   8.789
27414SOL    HW286037   8.155   7.150   8.687
27415SOL     OW86038   8.800   5.638   7.616
27415SOL    HW186039   8.835   5.597   7.532
27415SOL    HW286040   8.710   5.600   7.636
27416SOL     OW86041   8.748   6.039   8.139
27416SOL    HW186042   8.689   6.119   8.143
27416SOL    HW286043   8.763   6.004   8.232
27417SOL     OW86044   9.041   5.807   8.330
27417SOL    HW186045   8.957   5.806   8.384
27417SOL    HW286046   9.043   5.890   8.274
27418SOL     OW86047   7.487   6.663   7.748
27418SOL    HW186048   7.586   6.652   7.739
27418SOL    HW286049   7.447   6.577   7.780
27419SOL     OW86050   8.323   7.232   7.785
27419SOL    HW186051   8.246   7.197   7.731
27419SOL    HW286052   8.291   7.303   7.847
27420SOL     OW86053   7.678   6.214   9.423
27420SOL    HW186054   7.585   6.212   9.460
27420SOL    HW286055   7.679   6.175   9.331
27421SOL     OW86056   9.203   6.193   9.541
27421SOL    HW186057   9.191   6.180   9.442
27421SOL    HW286058   9.173   6.112   9.590
27422SOL     OW86059   7.679   7.299   9.793
27422SOL    HW186060   7.713   7.376   9.847
27422SOL    HW286061   7.723   7.299   9.703
27423SOL     OW86062   7.678   7.020   9.848
27423SOL    HW186063   7.652   7.116   9.848
27423SOL    HW286064   7.607   6.966   9.893
27424SOL     OW86065   8.054   6.550   9.433
27424SOL    HW186066   8.061   6.634   9.379
27424SOL    HW286067   8.100   6.563   9.521
27425SOL     OW86068   7.570   6.229   9.873
27425SOL    HW186069   7.525   6.141   9.890
27425SOL    HW286070   7.569   6.283   9.957
27426SOL     OW86071   9.290   7.353   9.669
27426SOL    HW186072   9.344   7.324   9.749
27426SOL    HW286073   9.320   7.443   9.640
27427SOL     OW86074   7.475   7.182   9.427
27427SOL    HW186075   7.456   7.086   9.448
27427SOL    HW286076   7.442   7.240   9.502
27428SOL     OW86077   9.137   6.508   9.922
27428SOL    HW186078   9.232   6.479   9.930
27428SOL    HW286079   9.129   6.573   9.847
27429SOL     OW86080   9.089   6.694   9.742
27429SOL    HW186081   9.175   6.696   9.690
27429SOL    HW286082   9.103   6.741   9.830
27430SOL     OW86083   8.061   6.951  10.036
27430SOL    HW186084   8.012   6.864  10.045
27430SOL    HW286085   8.038   6.994   9.949
27431SOL     OW86086   8.257   5.590   9.812
27431SOL    HW186087   8.297   5.681   9.803
27431SOL    HW286088   8.157   5.598   9.818
27432SOL     OW86089   8.973   6.585   9.500
27432SOL    HW186090   8.910   6.509   9.513
27432SOL    HW286091   9.021   6.603   9.586
27433SOL     OW86092   8.046   6.315   9.580
27433SOL    HW186093   8.070   6.384   9.512
27433SOL    HW286094   7.968   6.348   9.634
27434SOL     OW86095   9.024   7.248   9.617
27434SOL    HW186096   9.113   7.294   9.620
27434SOL    HW286097   9.003   7.224   9.522
27435SOL     OW86098   8.489   6.287   9.739
27435SOL    HW186099   8.515   6.283   9.835
27435SOL    HW286100   8.404   6.236   9.725
27436SOL     OW86101   7.524   6.397  10.099
27436SOL    HW186102   7.623   6.385  10.108
27436SOL    HW286103   7.500   6.492  10.120
27437SOL     OW86104   8.313   5.934   9.505
27437SOL    HW186105   8.372   5.997   9.456
27437SOL    HW286106   8.332   5.840   9.476
27438SOL     OW86107   8.810   6.730   9.855
27438SOL    HW186108   8.893   6.701   9.807
27438SOL    HW286109   8.761   6.797   9.799
27439SOL     OW86110   8.456   7.042   9.787
27439SOL    HW186111   8.410   7.114   9.735
27439SOL    HW286112   8.452   7.062   9.885
27440SOL     OW86113   7.799   7.387  10.163
27440SOL    HW186114   7.849   7.301  10.169
27440SOL    HW286115   7.864   7.464  10.160
27441SOL     OW86116   7.769   6.529   9.552
27441SOL    HW186117   7.851   6.568   9.510
27441SOL    HW286118   7.742   6.447   9.503
27442SOL     OW86119   8.559   7.362   9.547
27442SOL    HW186120   8.499   7.300   9.597
27442SOL    HW286121   8.590   7.318   9.462
27443SOL     OW86122   9.080   6.963   9.391
27443SOL    HW186123   9.048   7.057   9.381
27443SOL    HW286124   9.004   6.900   9.379
27444SOL     OW86125   7.912   7.329   9.633
27444SOL    HW186126   7.945   7.368   9.719
27444SOL    HW286127   7.988   7.322   9.568
27445SOL     OW86128   8.848   5.693   9.736
27445SOL    HW186129   8.824   5.656   9.646
27445SOL    HW286130   8.947   5.709   9.740
27446SOL     OW86131   7.830   6.286   9.790
27446SOL    HW186132   7.875   6.196   9.787
27446SOL    HW286133   7.736   6.275   9.823
27447SOL     OW86134   8.062   5.708   9.427
27447SOL    HW186135   8.160   5.686   9.434
27447SOL    HW286136   8.031   5.691   9.334
27448SOL     OW86137   7.987   5.650   9.822
27448SOL    HW186138   7.906   5.651   9.880
27448SOL    HW286139   7.990   5.733   9.767
27449SOL     OW86140   8.882   6.774   9.351
27449SOL    HW186141   8.914   6.698   9.408
27449SOL    HW286142   8.790   6.801   9.381
27450SOL     OW86143   7.745   5.621   9.481
27450SOL    HW186144   7.794   5.705   9.460
27450SOL    HW286145   7.807   5.556   9.526
27451SOL     OW86146   8.383   5.822   9.790
27451SOL    HW186147   8.335   5.863   9.712
27451SOL    HW286148   8.482   5.820   9.771
27452SOL     OW86149   7.907   6.738  10.051
27452SOL    HW186150   7.836   6.711  10.116
27452SOL    HW286151   7.881   6.710   9.958
27453SOL     OW86152   8.719   7.383   9.901
27453SOL    HW186153   8.763   7.447   9.837
27453SOL    HW286154   8.669   7.435   9.971
27454SOL     OW86155   8.480   6.135   9.326
27454SOL    HW186156   8.439   6.217   9.287
27454SOL    HW286157   8.544   6.161   9.399
27455SOL     OW86158   8.314   6.040   9.952
27455SOL    HW186159   8.282   6.112   9.890
27455SOL    HW286160   8.338   5.959   9.899
27456SOL     OW86161   9.305   6.419   9.687
27456SOL    HW186162   9.347   6.355   9.751
27456SOL    HW286163   9.267   6.368   9.609
27457SOL     OW86164   8.838   6.161   9.388
27457SOL    HW186165   8.784   6.140   9.469
27457SOL    HW286166   8.929   6.120   9.397
27458SOL     OW86167   7.975   5.842   9.638
27458SOL    HW186168   8.002   5.783   9.563
27458SOL    HW286169   7.975   5.937   9.607
27459SOL     OW86170   8.153   6.636   9.678
27459SOL    HW186171   8.139   6.643   9.777
27459SOL    HW286172   8.237   6.585   9.660
27460SOL     OW86173   7.815   6.686   9.811
27460SOL    HW186174   7.808   6.769   9.755
27460SOL    HW286175   7.819   6.606   9.751
27461SOL     OW86176   8.700   6.934   9.698
27461SOL    HW186177   8.750   7.011   9.738
27461SOL    HW286178   8.605   6.936   9.730
27462SOL     OW86179   9.030   6.225   9.782
27462SOL    HW186180   8.999   6.286   9.855
27462SOL    HW286181   9.080   6.277   9.713
27463SOL     OW86182   8.657   6.111   9.585
27463SOL    HW186183   8.670   6.027   9.639
27463SOL    HW286184   8.628   6.185   9.645
27464SOL     OW86185   7.755   5.649   9.928
27464SOL    HW186186   7.744   5.743   9.961
27464SOL    HW286187   7.750   5.586  10.005
27465SOL     OW86188   9.070   5.953   9.684
27465SOL    HW186189   9.072   5.877   9.748
27465SOL    HW286190   9.022   6.030   9.724
27466SOL     OW86191   8.988   5.860   9.435
27466SOL    HW186192   8.927   5.785   9.458
27466SOL    HW286193   9.010   5.912   9.518
27467SOL     OW86194   8.751   6.424   9.352
27467SOL    HW186195   8.785   6.331   9.367
27467SOL    HW286196   8.769   6.451   9.257
27468SOL     OW86197   7.456   6.912   9.510
27468SOL    HW186198   7.363   6.933   9.479
27468SOL    HW286199   7.466   6.813   9.523
27469SOL     OW86200   8.263   6.158   9.635
27469SOL    HW186201   8.270   6.069   9.589
27469SOL    HW286202   8.169   6.192   9.627
27470SOL     OW86203   7.921   6.086   9.501
27470SOL    HW186204   7.982   6.166   9.505
27470SOL    HW286205   7.826   6.117   9.508
27471SOL     OW86206   8.750   6.441   9.619
27471SOL    HW186207   8.664   6.410   9.661
27471SOL    HW286208   8.746   6.427   9.520
27472SOL     OW86209   9.174   5.721   9.833
27472SOL    HW186210   9.247   5.704   9.766
27472SOL    HW286211   9.143   5.634   9.871
27473SOL     OW86212   8.836   7.159   9.787
27473SOL    HW186213   8.903   7.171   9.713
27473SOL    HW286214   8.796   7.248   9.810
27474SOL     OW86215   8.120   7.202   9.464
27474SOL    HW186216   8.129   7.212   9.365
27474SOL    HW286217   8.080   7.113   9.485
27475SOL     OW86218   8.642   7.198   9.341
27475SOL    HW186219   8.648   7.105   9.378
27475SOL    HW286220   8.583   7.198   9.261
27476SOL     OW86221   8.364   6.496   9.601
27476SOL    HW186222   8.427   6.534   9.533
27476SOL    HW286223   8.404   6.413   9.640
27477SOL     OW86224   8.952   7.193   9.354
27477SOL    HW186225   8.860   7.230   9.361
27477SOL    HW286226   8.990   7.213   9.264
27478SOL     OW86227   8.038   7.073   9.801
27478SOL    HW186228   8.080   7.015   9.731
27478SOL    HW286229   7.994   7.152   9.757
27479SOL     OW86230   7.703   6.934   9.600
27479SOL    HW186231   7.607   6.935   9.573
27479SOL    HW286232   7.715   6.987   9.684
27480SOL     OW86233   7.523   5.931   9.343
27480SOL    HW186234   7.431   5.903   9.314
27480SOL    HW286235   7.554   6.008   9.287
27481SOL     OW86236   7.520   5.752   9.628
27481SOL    HW186237   7.503   5.835   9.574
27481SOL    HW286238   7.610   5.715   9.606
27482SOL     OW86239   8.631   6.921   9.429
27482SOL    HW186240   8.532   6.910   9.431
27482SOL    HW286241   8.665   6.936   9.522
27483SOL     OW86242   8.673   5.911   9.759
27483SOL    HW186243   8.738   5.837   9.748
27483SOL    HW286244   8.693   5.961   9.843
27484SOL     OW86245   8.042   6.331   9.962
27484SOL    HW186246   8.092   6.416   9.943
27484SOL    HW286247   7.954   6.333   9.914
27485SOL     OW86248   8.531   6.570   9.397
27485SOL    HW186249   8.508   6.623   9.315
27485SOL    HW286250   8.612   6.514   9.378
27486SOL     OW86251   7.527   6.826   9.963
27486SOL    HW186252   7.526   6.779  10.051
27486SOL    HW286253   7.609   6.798   9.912
27487SOL     OW86254   7.876   6.010   9.830
27487SOL    HW186255   7.906   5.938   9.768
27487SOL    HW286256   7.837   5.970   9.913
27488SOL     OW86257   8.218   6.916   9.611
27488SOL    HW186258   8.172   6.829   9.628
27488SOL    HW286259   8.309   6.913   9.652
27489SOL     OW86260   7.487   6.663   9.610
27489SOL    HW186261   7.586   6.652   9.601
27489SOL    HW286262   7.447   6.577   9.642
27490SOL     OW86263   8.323   7.232   9.647
27490SOL    HW186264   8.246   7.197   9.593
27490SOL    HW286265   8.291   7.303   9.709
27491SOL     OW86266   7.678   8.076   0.113
27491SOL    HW186267   7.585   8.074   0.150
27491SOL    HW286268   7.679   8.037   0.021
27492SOL     OW86269   7.673   7.723   0.996
27492SOL    HW186270   7.708   7.706   1.088
27492SOL    HW286271   7.585   7.678   0.984
27493SOL     OW86272   8.017   8.723   1.165
27493SOL    HW186273   7.924   8.716   1.128
27493SOL    HW286274   8.028   8.812   1.209
27494SOL     OW86275   9.003   8.959   0.703
27494SOL    HW186276   8.946   8.943   0.784
27494SOL    HW286277   8.944   8.969   0.623
27495SOL     OW86278   8.583   8.151   0.717
27495SOL    HW186279   8.640   8.229   0.692
27495SOL    HW286280   8.523   8.177   0.793
27496SOL     OW86281   9.203   8.055   0.231
27496SOL    HW186282   9.191   8.042   0.132
27496SOL    HW286283   9.173   7.974   0.280
27497SOL     OW86284   8.216   8.592   1.023
27497SOL    HW186285   8.138   8.609   1.083
27497SOL    HW286286   8.250   8.679   0.987
27498SOL     OW86287   8.298   8.246   1.823
27498SOL    HW186288   8.294   8.322   1.888
27498SOL    HW286289   8.320   8.282   1.732
27499SOL     OW86290   8.133   8.460   0.665
27499SOL    HW186291   8.202   8.444   0.735
27499SOL    HW286292   8.060   8.517   0.703
27500SOL     OW86293   8.134   8.609   1.803
27500SOL    HW186294   8.194   8.688   1.817
27500SOL    HW286295   8.048   8.640   1.762
27501SOL     OW86296   7.783   8.883   1.061
27501SOL    HW186297   7.705   8.852   1.008
27501SOL    HW286298   7.841   8.941   1.004
27502SOL     OW86299   8.908   8.953   1.339
27502SOL    HW186300   8.932   9.047   1.365
27502SOL    HW286301   8.892   8.899   1.421
27503SOL     OW86302   7.886   7.840   1.499
27503SOL    HW186303   7.968   7.784   1.508
27503SOL    HW286304   7.805   7.782   1.503
27504SOL     OW86305   9.051   7.895   0.737
27504SOL    HW186306   8.977   7.941   0.687
27504SOL    HW286307   9.102   7.963   0.790
27505SOL     OW86308   7.679   9.161   0.483
27505SOL    HW186309   7.713   9.238   0.537
27505SOL    HW286310   7.723   9.161   0.393
27506SOL     OW86311   8.575   8.789   1.690
27506SOL    HW186312   8.622   8.789   1.778
27506SOL    HW286313   8.527   8.702   1.679
27507SOL     OW86314   7.678   8.882   0.538
27507SOL    HW186315   7.652   8.978   0.538
27507SOL    HW286316   7.607   8.828   0.583
27508SOL     OW86317   7.688   8.539   0.886
27508SOL    HW186318   7.702   8.455   0.938
27508SOL    HW286319   7.633   8.603   0.941
27509SOL     OW86320   8.068   9.234   1.439
27509SOL    HW186321   7.976   9.217   1.474
27509SOL    HW286322   8.096   9.326   1.465
27510SOL     OW86323   8.054   8.412   0.123
27510SOL    HW186324   8.061   8.496   0.069
27510SOL    HW286325   8.100   8.425   0.211
27511SOL     OW86326   9.042   7.562   1.480
27511SOL    HW186327   9.024   7.629   1.408
27511SOL    HW286328   9.039   7.608   1.569
27512SOL     OW86329   7.570   8.091   0.563
27512SOL    HW186330   7.525   8.003   0.580
27512SOL    HW286331   7.569   8.145   0.647
27513SOL     OW86332   9.290   9.215   0.359
27513SOL    HW186333   9.344   9.186   0.439
27513SOL    HW286334   9.320   9.305   0.330
27514SOL     OW86335   7.475   9.044   0.117
27514SOL    HW186336   7.456   8.948   0.138
27514SOL    HW286337   7.442   9.102   0.192
27515SOL     OW86338   9.137   8.370   0.612
27515SOL    HW186339   9.232   8.341   0.620
27515SOL    HW286340   9.129   8.435   0.537
27516SOL     OW86341   9.089   8.556   0.432
27516SOL    HW186342   9.175   8.558   0.380
27516SOL    HW286343   9.103   8.603   0.520
27517SOL     OW86344   7.561   8.185   1.597
27517SOL    HW186345   7.649   8.172   1.642
27517SOL    HW286346   7.548   8.282   1.575
27518SOL     OW86347   8.061   8.813   0.726
27518SOL    HW186348   8.012   8.726   0.735
27518SOL    HW286349   8.038   8.856   0.639
27519SOL     OW86350   8.741   8.676   1.423
27519SOL    HW186351   8.778   8.603   1.365
27519SOL    HW286352   8.793   8.681   1.508
27520SOL     OW86353   8.257   7.452   0.502
27520SOL    HW186354   8.297   7.543   0.493
27520SOL    HW286355   8.157   7.460   0.508
27521SOL     OW86356   7.645   8.424   1.264
27521SOL    HW186357   7.734   8.379   1.250
27521SOL    HW286358   7.572   8.359   1.245
27522SOL     OW86359   8.973   8.447   0.190
27522SOL    HW186360   8.910   8.371   0.203
27522SOL    HW286361   9.021   8.465   0.276
27523SOL     OW86362   8.635   9.240   1.616
27523SOL    HW186363   8.659   9.300   1.540
27523SOL    HW286364   8.642   9.145   1.586
27524SOL     OW86365   8.914   8.865   0.953
27524SOL    HW186366   8.855   8.871   1.033
27524SOL    HW286367   8.899   8.777   0.907
27525SOL     OW86368   9.115   9.162   0.572
27525SOL    HW186369   9.074   9.139   0.484
27525SOL    HW286370   9.097   9.088   0.637
27526SOL     OW86371   8.046   8.177   0.270
27526SOL    HW186372   8.070   8.246   0.202
27526SOL    HW286373   7.968   8.210   0.324
27527SOL     OW86374   8.729   7.793   0.944
27527SOL    HW186375   8.643   7.743   0.931
27527SOL    HW286376   8.791   7.739   1.000
27528SOL     OW86377   9.024   9.110   0.307
27528SOL    HW186378   9.113   9.156   0.310
27528SOL    HW286379   9.003   9.086   0.212
27529SOL     OW86380   8.255   8.053   1.465
27529SOL    HW186381   8.208   8.050   1.554
27529SOL    HW286382   8.204   7.998   1.399
27530SOL     OW86383   8.842   7.917   1.674
27530SOL    HW186384   8.822   7.960   1.762
27530SOL    HW286385   8.920   7.855   1.683
27531SOL     OW86386   8.421   8.338   1.572
27531SOL    HW186387   8.467   8.254   1.543
27531SOL    HW286388   8.365   8.372   1.497
27532SOL     OW86389   8.439   7.858   1.242
27532SOL    HW186390   8.362   7.892   1.296
27532SOL    HW286391   8.405   7.807   1.163
27533SOL     OW86392   8.489   8.149   0.429
27533SOL    HW186393   8.515   8.145   0.525
27533SOL    HW286394   8.404   8.098   0.415
27534SOL     OW86395   7.524   8.259   0.789
27534SOL    HW186396   7.623   8.247   0.798
27534SOL    HW286397   7.500   8.354   0.810
27535SOL     OW86398   7.578   9.269   1.571
27535SOL    HW186399   7.568   9.254   1.670
27535SOL    HW286400   7.492   9.305   1.535
27536SOL     OW86401   8.313   7.796   0.195
27536SOL    HW186402   8.372   7.859   0.146
27536SOL    HW286403   8.332   7.702   0.166
27537SOL     OW86404   9.167   8.033   1.831
27537SOL    HW186405   9.141   8.122   1.795
27537SOL    HW286406   9.165   7.965   1.758
27538SOL     OW86407   8.810   8.592   0.545
27538SOL    HW186408   8.893   8.563   0.497
27538SOL    HW286409   8.761   8.659   0.489
27539SOL     OW86410   7.998   7.644   0.885
27539SOL    HW186411   7.993   7.639   0.985
27539SOL    HW286412   8.000   7.740   0.856
27540SOL     OW86413   8.456   8.904   0.477
27540SOL    HW186414   8.410   8.976   0.425
27540SOL    HW286415   8.452   8.924   0.575
27541SOL     OW86416   7.799   9.249   0.853
27541SOL    HW186417   7.849   9.163   0.859
27541SOL    HW286418   7.864   9.326   0.850
27542SOL     OW86419   9.243   8.514   0.873
27542SOL    HW186420   9.181   8.499   0.797
27542SOL    HW286421   9.191   8.525   0.958
27543SOL     OW86422   8.675   8.998   1.506
27543SOL    HW186423   8.681   8.921   1.570
27543SOL    HW286424   8.623   8.972   1.426
27544SOL     OW86425   7.769   8.391   0.242
27544SOL    HW186426   7.851   8.430   0.200
27544SOL    HW286427   7.742   8.309   0.193
27545SOL     OW86428   8.906   8.183   0.728
27545SOL    HW186429   8.901   8.118   0.803
27545SOL    HW286430   8.986   8.242   0.741
27546SOL     OW86431   7.909   8.714   1.727
27546SOL    HW186432   7.859   8.715   1.641
27546SOL    HW286433   7.846   8.696   1.803
27547SOL     OW86434   8.559   9.224   0.237
27547SOL    HW186435   8.499   9.162   0.287
27547SOL    HW286436   8.590   9.180   0.152
27548SOL     OW86437   7.650   7.733   1.498
27548SOL    HW186438   7.570   7.793   1.485
27548SOL    HW286439   7.640   7.684   1.584
27549SOL     OW86440   9.080   8.825   0.081
27549SOL    HW186441   9.048   8.919   0.071
27549SOL    HW286442   9.004   8.762   0.069
27550SOL     OW86443   7.912   9.191   0.323
27550SOL    HW186444   7.945   9.230   0.409
27550SOL    HW286445   7.988   9.184   0.258
27551SOL     OW86446   7.697   9.233   1.241
27551SOL    HW186447   7.754   9.168   1.291
27551SOL    HW286448   7.681   9.200   1.148
27552SOL     OW86449   8.388   9.146   0.904
27552SOL    HW186450   8.468   9.089   0.925
27552SOL    HW286451   8.339   9.106   0.827
27553SOL     OW86452   7.830   8.148   0.480
27553SOL    HW186453   7.875   8.058   0.477
27553SOL    HW286454   7.736   8.137   0.513
27554SOL     OW86455   8.995   7.670   1.729
27554SOL    HW186456   8.990   7.707   1.821
27554SOL    HW286457   8.923   7.601   1.717
27555SOL     OW86458   8.062   7.570   0.117
27555SOL    HW186459   8.160   7.548   0.124
27555SOL    HW286460   8.031   7.553   0.024
27556SOL     OW86461   8.336   8.962   1.195
27556SOL    HW186462   8.313   8.937   1.101
27556SOL    HW286463   8.397   8.893   1.234
27557SOL     OW86464   8.799   8.038   1.433
27557SOL    HW186465   8.827   7.995   1.518
27557SOL    HW286466   8.824   8.134   1.434
27558SOL     OW86467   8.251   8.850   0.924
27558SOL    HW186468   8.341   8.864   0.882
27558SOL    HW286469   8.180   8.852   0.853
27559SOL     OW86470   8.370   7.951   0.899
27559SOL    HW186471   8.345   7.942   0.803
27559SOL    HW286472   8.418   7.869   0.930
27560SOL     OW86473   7.987   7.512   0.512
27560SOL    HW186474   7.906   7.513   0.570
27560SOL    HW286475   7.990   7.595   0.457
27561SOL     OW86476   8.882   8.636   0.041
27561SOL    HW186477   8.914   8.560   0.098
27561SOL    HW286478   8.790   8.663   0.071
27562SOL     OW86479   8.383   7.684   0.480
27562SOL    HW186480   8.335   7.725   0.402
27562SOL    HW286481   8.482   7.682   0.461
27563SOL     OW86482   8.524   8.131   1.464
27563SOL    HW186483   8.444   8.070   1.467
27563SOL    HW286484   8.605   8.078   1.440
27564SOL     OW86485   8.675   9.018   0.793
27564SOL    HW186486   8.696   9.092   0.728
27564SOL    HW286487   8.743   9.018   0.866
27565SOL     OW86488   7.907   8.600   0.741
27565SOL    HW186489   7.836   8.573   0.806
27565SOL    HW286490   7.881   8.572   0.648
27566SOL     OW86491   8.719   9.245   0.591
27566SOL    HW186492   8.763   9.309   0.527
27566SOL    HW286493   8.669   9.297   0.661
27567SOL     OW86494   8.480   7.997   0.016
27567SOL    HW186495   8.439   8.079  -0.023
27567SOL    HW286496   8.544   8.023   0.089
27568SOL     OW86497   7.526   8.004   1.386
27568SOL    HW186498   7.618   8.003   1.345
27568SOL    HW286499   7.520   8.078   1.453
27569SOL     OW86500   8.009   7.670   1.147
27569SOL    HW186501   8.047   7.586   1.184
27569SOL    HW286502   7.921   7.689   1.191
27570SOL     OW86503   8.314   7.902   0.642
27570SOL    HW186504   8.282   7.974   0.580
27570SOL    HW286505   8.338   7.821   0.589
27571SOL     OW86506   8.465   7.487   0.753
27571SOL    HW186507   8.393   7.492   0.684
27571SOL    HW286508   8.441   7.418   0.822
27572SOL     OW86509   8.877   8.621   0.867
27572SOL    HW186510   8.822   8.537   0.860
27572SOL    HW286511   8.903   8.650   0.775
27573SOL     OW86512   8.914   8.038   0.992
27573SOL    HW186513   8.884   7.943   0.999
27573SOL    HW286514   8.987   8.054   1.058
27574SOL     OW86515   9.305   8.281   0.377
27574SOL    HW186516   9.347   8.217   0.441
27574SOL    HW286517   9.267   8.230   0.299
27575SOL     OW86518   7.936   8.833   0.174
27575SOL    HW186519   7.849   8.818   0.221
27575SOL    HW286520   7.919   8.859   0.079
27576SOL     OW86521   9.112   8.728   0.657
27576SOL    HW186522   9.211   8.736   0.671
27576SOL    HW286523   9.067   8.812   0.688
27577SOL     OW86524   8.838   8.023   0.078
27577SOL    HW186525   8.784   8.002   0.159
27577SOL    HW286526   8.929   7.982   0.087
27578SOL     OW86527   7.975   7.704   0.328
27578SOL    HW186528   8.002   7.645   0.253
27578SOL    HW286529   7.975   7.799   0.297
27579SOL     OW86530   9.202   8.671   1.588
27579SOL    HW186531   9.293   8.632   1.575
27579SOL    HW286532   9.210   8.767   1.612
27580SOL     OW86533   8.512   8.795   1.340
27580SOL    HW186534   8.432   8.772   1.395
27580SOL    HW286535   8.595   8.769   1.389
27581SOL     OW86536   9.040   9.077   1.625
27581SOL    HW186537   9.067   9.111   1.535
27581SOL    HW286538   9.119   9.039   1.671
27582SOL     OW86539   8.559   8.643   1.100
27582SOL    HW186540   8.519   8.687   1.181
27582SOL    HW286541   8.518   8.680   1.017
27583SOL     OW86542   9.086   8.547   1.079
27583SOL    HW186543   9.091   8.628   1.138
27583SOL    HW286544   9.000   8.549   1.028
27584SOL     OW86545   8.363   7.537   1.402
27584SOL    HW186546   8.388   7.517   1.307
27584SOL    HW286547   8.435   7.593   1.444
27585SOL     OW86548   8.428   8.564   1.719
27585SOL    HW186549   8.329   8.570   1.729
27585SOL    HW286550   8.451   8.484   1.663
27586SOL     OW86551   8.153   8.498   0.368
27586SOL    HW186552   8.139   8.505   0.467
27586SOL    HW286553   8.237   8.447   0.350
27587SOL     OW86554   7.858   8.261   1.251
27587SOL    HW186555   7.944   8.273   1.301
27587SOL    HW286556   7.816   8.174   1.278
27588SOL     OW86557   8.722   7.834   1.262
27588SOL    HW186558   8.743   7.908   1.326
27588SOL    HW286559   8.633   7.851   1.219
27589SOL     OW86560   7.512   9.012   1.331
27589SOL    HW186561   7.466   9.094   1.297
27589SOL    HW286562   7.610   9.031   1.340
27590SOL     OW86563   7.815   8.548   0.501
27590SOL    HW186564   7.808   8.631   0.445
27590SOL    HW286565   7.819   8.468   0.441
27591SOL     OW86566   8.014   7.985   0.865
27591SOL    HW186567   8.026   8.051   0.791
27591SOL    HW286568   8.060   8.019   0.948
27592SOL     OW86569   8.700   8.796   0.388
27592SOL    HW186570   8.750   8.873   0.428
27592SOL    HW286571   8.605   8.798   0.420
27593SOL     OW86572   8.720   8.893   1.142
27593SOL    HW186573   8.767   8.906   1.229
27593SOL    HW286574   8.654   8.819   1.151
27594SOL     OW86575   9.030   8.087   0.472
27594SOL    HW186576   8.999   8.148   0.545
27594SOL    HW286577   9.080   8.139   0.403
27595SOL     OW86578   7.802   8.958   1.329
27595SOL    HW186579   7.781   8.914   1.242
27595SOL    HW286580   7.899   8.984   1.332
27596SOL     OW86581   7.850   8.199   1.598
27596SOL    HW186582   7.918   8.254   1.551
27596SOL    HW286583   7.890   8.111   1.625
27597SOL     OW86584   9.035   8.227   1.670
27597SOL    HW186585   8.943   8.265   1.665
27597SOL    HW286586   9.095   8.274   1.605
27598SOL     OW86587   8.461   7.553   1.770
27598SOL    HW186588   8.467   7.638   1.718
27598SOL    HW286589   8.493   7.477   1.713
27599SOL     OW86590   8.021   8.318   1.029
27599SOL    HW186591   8.065   8.407   1.020
27599SOL    HW286592   7.958   8.318   1.106
27600SOL     OW86593   8.808   8.310   1.045
27600SOL    HW186594   8.733   8.310   0.979
27600SOL    HW286595   8.845   8.218   1.054
27601SOL     OW86596   8.657   7.973   0.275
27601SOL    HW186597   8.670   7.889   0.329
27601SOL    HW286598   8.628   8.047   0.335
27602SOL     OW86599   7.755   7.661   1.231
27602SOL    HW186600   7.732   7.698   1.321
27602SOL    HW286601   7.725   7.566   1.225
27603SOL     OW86602   7.485   8.758   1.282
27603SOL    HW186603   7.538   8.709   1.350
27603SOL    HW286604   7.507   8.856   1.287
27604SOL     OW86605   8.180   8.082   1.064
27604SOL    HW186606   8.239   8.056   0.988
27604SOL    HW286607   8.152   8.178   1.053
27605SOL     OW86608   9.176   8.383   1.854
27605SOL    HW186609   9.130   8.376   1.765
27605SOL    HW286610   9.114   8.427   1.920
27606SOL     OW86611   7.755   7.511   0.618
27606SOL    HW186612   7.744   7.605   0.651
27606SOL    HW286613   7.750   7.448   0.695
27607SOL     OW86614   9.070   7.815   0.374
27607SOL    HW186615   9.072   7.739   0.438
27607SOL    HW286616   9.022   7.892   0.414
27608SOL     OW86617   8.471   8.214   0.966
27608SOL    HW186618   8.486   8.235   1.062
27608SOL    HW286619   8.441   8.119   0.957
27609SOL     OW86620   8.428   9.021   1.700
27609SOL    HW186621   8.408   9.065   1.612
27609SOL    HW286622   8.467   8.930   1.684
27610SOL     OW86623   9.307   8.966   1.605
27610SOL    HW186624   9.321   8.993   1.510
27610SOL    HW286625   9.390   8.988   1.658
27611SOL     OW86626   7.798   8.346   1.804
27611SOL    HW186627   7.874   8.390   1.852
27611SOL    HW286628   7.833   8.299   1.722
27612SOL     OW86629   8.988   7.722   0.125
27612SOL    HW186630   8.927   7.647   0.148
27612SOL    HW286631   9.010   7.774   0.208
27613SOL     OW86632   8.751   8.286   0.042
27613SOL    HW186633   8.785   8.193   0.057
27613SOL    HW286634   8.769   8.313  -0.053
27614SOL     OW86635   8.516   8.781   0.849
27614SOL    HW186636   8.523   8.697   0.794
27614SOL    HW286637   8.578   8.850   0.813
27615SOL     OW86638   7.767   8.258   0.949
27615SOL    HW186639   7.860   8.294   0.954
27615SOL    HW286640   7.761   8.173   1.001
27616SOL     OW86641   7.787   7.957   1.006
27616SOL    HW186642   7.735   7.874   0.989
27616SOL    HW286643   7.864   7.962   0.942
27617SOL     OW86644   8.586   7.828   1.678
27617SOL    HW186645   8.541   7.891   1.742
27617SOL    HW286646   8.679   7.859   1.661
27618SOL     OW86647   8.608   7.655   1.477
27618SOL    HW186648   8.608   7.719   1.554
27618SOL    HW286649   8.636   7.703   1.394
27619SOL     OW86650   7.456   8.774   0.200
27619SOL    HW186651   7.363   8.795   0.169
27619SOL    HW286652   7.466   8.675   0.213
27620SOL     OW86653   7.536   9.249   0.927
27620SOL    HW186654   7.494   9.163   0.900
27620SOL    HW286655   7.630   9.252   0.893
27621SOL     OW86656   7.952   9.016   0.910
27621SOL    HW186657   8.018   9.090   0.919
27621SOL    HW286658   7.996   8.937   0.868
27622SOL     OW86659   8.450   8.244   1.238
27622SOL    HW186660   8.491   8.212   1.324
27622SOL    HW286661   8.354   8.217   1.235
27623SOL     OW86662   7.488   7.992   1.114
27623SOL    HW186663   7.573   7.959   1.073
27623SOL    HW286664   7.501   8.007   1.212
27624SOL     OW86665   7.637   7.968   1.722
27624SOL    HW186666   7.696   7.928   1.652
27624SOL    HW286667   7.579   8.039   1.681
27625SOL     OW86668   8.817   8.398   1.660
27625SOL    HW186669   8.856   8.487   1.680
27625SOL    HW286670   8.827   8.378   1.563
27626SOL     OW86671   8.263   8.020   0.325
27626SOL    HW186672   8.270   7.931   0.279
27626SOL    HW286673   8.169   8.054   0.317
27627SOL     OW86674   9.105   8.052   1.206
27627SOL    HW186675   9.067   7.983   1.268
27627SOL    HW286676   9.187   8.016   1.162
27628SOL     OW86677   7.700   9.012   1.744
27628SOL    HW186678   7.670   9.069   1.820
27628SOL    HW286679   7.693   8.915   1.770
27629SOL     OW86680   8.119   7.912   1.269
27629SOL    HW186681   8.085   7.823   1.239
27629SOL    HW286682   8.145   7.966   1.189
27630SOL     OW86683   8.378   9.126   1.465
27630SOL    HW186684   8.354   9.108   1.370
27630SOL    HW286685   8.408   9.220   1.475
27631SOL     OW86686   7.921   7.948   0.191
27631SOL    HW186687   7.982   8.028   0.195
27631SOL    HW286688   7.826   7.979   0.198
27632SOL     OW86689   7.607   8.585   1.466
27632SOL    HW186690   7.629   8.524   1.542
27632SOL    HW286691   7.617   8.536   1.380
27633SOL     OW86692   8.795   8.507   1.234
27633SOL    HW186693   8.819   8.444   1.160
27633SOL    HW286694   8.705   8.547   1.216
27634SOL     OW86695   8.750   8.303   0.309
27634SOL    HW186696   8.664   8.272   0.351
27634SOL    HW286697   8.746   8.289   0.210
27635SOL     OW86698   9.207   9.195   1.154
27635SOL    HW186699   9.268   9.225   1.081
27635SOL    HW286700   9.169   9.106   1.132
27636SOL     OW86701   8.700   9.179   1.128
27636SOL    HW186702   8.784   9.184   1.074
27636SOL    HW286703   8.677   9.083   1.146
27637SOL     OW86704   7.531   8.706   1.022
27637SOL    HW186705   7.526   8.705   1.122
27637SOL    HW286706   7.448   8.665   0.984
27638SOL     OW86707   8.136   9.110   1.716
27638SOL    HW186708   8.080   9.191   1.725
27638SOL    HW286709   8.188   9.114   1.630
27639SOL     OW86710   8.351   7.534   0.133
27639SOL    HW186711   8.402   7.535   0.047
27639SOL    HW286712   8.407   7.492   0.204
27640SOL     OW86713   9.174   7.583   0.523
27640SOL    HW186714   9.247   7.566   0.456
27640SOL    HW286715   9.143   7.496   0.561
27641SOL     OW86716   8.836   9.021   0.477
27641SOL    HW186717   8.903   9.033   0.403
27641SOL    HW286718   8.796   9.110   0.500
27642SOL     OW86719   7.578   9.242   1.851
27642SOL    HW186720   7.537   9.168   1.904
27642SOL    HW286721   7.642   9.293   1.909
27643SOL     OW86722   8.728   8.375   0.672
27643SOL    HW186723   8.788   8.294   0.674
27643SOL    HW286724   8.768   8.444   0.612
27644SOL     OW86725   8.278   8.721   1.422
27644SOL    HW186726   8.273   8.754   1.517
27644SOL    HW286727   8.192   8.740   1.376
27645SOL     OW86728   8.120   9.064   0.154
27645SOL    HW186729   8.129   9.074   0.055
27645SOL    HW286730   8.080   8.975   0.175
27646SOL     OW86731   9.098   9.168   1.394
27646SOL    HW186732   9.151   9.178   1.310
27646SOL    HW286733   9.071   9.258   1.428
27647SOL     OW86734   9.289   7.623   0.963
27647SOL    HW186735   9.328   7.538   0.927
27647SOL    HW286736   9.191   7.625   0.944
27648SOL     OW86737   7.711   7.774   0.720
27648SOL    HW186738   7.632   7.825   0.686
27648SOL    HW286739   7.702   7.759   0.818
27649SOL     OW86740   8.642   9.060   0.031
27649SOL    HW186741   8.648   8.967   0.068
27649SOL    HW286742   8.583   9.060  -0.049
27650SOL     OW86743   8.270   8.450   1.372
27650SOL    HW186744   8.310   8.449   1.280
27650SOL    HW286745   8.280   8.542   1.412
27651SOL     OW86746   8.364   8.358   0.291
27651SOL    HW186747   8.427   8.396   0.223
27651SOL    HW286748   8.404   8.275   0.330
27652SOL     OW86749   8.952   9.055   0.044
27652SOL    HW186750   8.860   9.092   0.051
27652SOL    HW286751   8.990   9.075  -0.046
27653SOL     OW86752   7.820   8.736   1.490
27653SOL    HW186753   7.807   8.829   1.456
27653SOL    HW286754   7.736   8.684   1.477
27654SOL     OW86755   9.062   8.740   1.289
27654SOL    HW186756   9.122   8.743   1.369
27654SOL    HW286757   8.987   8.804   1.302
27655SOL     OW86758   8.487   8.546   0.696
27655SOL    HW186759   8.417   8.499   0.750
27655SOL    HW286760   8.546   8.478   0.653
27656SOL     OW86761   8.462   7.684   0.971
27656SOL    HW186762   8.454   7.648   0.878
27656SOL    HW286763   8.460   7.608   1.036
27657SOL     OW86764   8.038   8.935   0.491
27657SOL    HW186765   8.080   8.877   0.421
27657SOL    HW286766   7.994   9.014   0.447
27658SOL     OW86767   9.157   7.833   1.381
27658SOL    HW186768   9.230   7.902   1.385
27658SOL    HW286769   9.185   7.758   1.322
27659SOL     OW86770   7.703   8.796   0.290
27659SOL    HW186771   7.607   8.797   0.263
27659SOL    HW286772   7.715   8.849   0.374
27660SOL     OW86773   7.553   8.461   1.726
27660SOL    HW186774   7.476   8.428   1.780
27660SOL    HW286775   7.638   8.431   1.768
27661SOL     OW86776   8.120   7.651   1.489
27661SOL    HW186777   8.210   7.635   1.449
27661SOL    HW286778   8.128   7.656   1.588
27662SOL     OW86779   7.523   7.793   0.033
27662SOL    HW186780   7.431   7.765   0.004
27662SOL    HW286781   7.554   7.870  -0.023
27663SOL     OW86782   8.888   8.304   1.398
27663SOL    HW186783   8.831   8.356   1.335
27663SOL    HW286784   8.984   8.316   1.374
27664SOL     OW86785   7.520   7.614   0.318
27664SOL    HW186786   7.503   7.697   0.264
27664SOL    HW286787   7.610   7.577   0.296
27665SOL     OW86788   8.631   8.783   0.119
27665SOL    HW186789   8.532   8.772   0.121
27665SOL    HW286790   8.665   8.798   0.212
27666SOL     OW86791   8.061   8.290   1.431
27666SOL    HW186792   8.117   8.371   1.414
27666SOL    HW286793   8.120   8.210   1.434
27667SOL     OW86794   8.941   9.215   0.959
27667SOL    HW186795   8.974   9.279   0.890
27667SOL    HW286796   9.007   9.209   1.034
27668SOL     OW86797   8.164   8.013   1.708
27668SOL    HW186798   8.183   8.078   1.782
27668SOL    HW286799   8.224   7.933   1.717
27669SOL     OW86800   8.898   8.668   1.633
27669SOL    HW186801   8.889   8.658   1.732
27669SOL    HW286802   8.994   8.661   1.607
27670SOL     OW86803   7.838   9.189   1.560
27670SOL    HW186804   7.747   9.230   1.558
27670SOL    HW286805   7.831   9.095   1.592
27671SOL     OW86806   9.122   8.331   1.254
27671SOL    HW186807   9.095   8.242   1.217
27671SOL    HW286808   9.123   8.399   1.181
27672SOL     OW86809   8.673   7.773   0.449
27672SOL    HW186810   8.738   7.699   0.438
27672SOL    HW286811   8.693   7.823   0.533
27673SOL     OW86812   8.042   8.193   0.652
27673SOL    HW186813   8.092   8.278   0.633
27673SOL    HW286814   7.954   8.195   0.604
27674SOL     OW86815   9.225   7.790   1.642
27674SOL    HW186816   9.208   7.821   1.548
27674SOL    HW286817   9.141   7.753   1.680
27675SOL     OW86818   9.178   8.382   1.517
27675SOL    HW186819   9.216   8.473   1.532
27675SOL    HW286820   9.170   8.365   1.418
27676SOL     OW86821   8.307   8.822   0.016
27676SOL    HW186822   8.261   8.837   0.104
27676SOL    HW286823   8.351   8.907  -0.014
27677SOL     OW86824   8.109   9.238   0.953
27677SOL    HW186825   8.063   9.326   0.940
27677SOL    HW286826   8.208   9.250   0.946
27678SOL     OW86827   8.307   8.404   0.861
27678SOL    HW186828   8.361   8.335   0.909
27678SOL    HW286829   8.275   8.473   0.927
27679SOL     OW86830   8.531   8.432   0.087
27679SOL    HW186831   8.508   8.485   0.005
27679SOL    HW286832   8.612   8.376   0.068
27680SOL     OW86833   9.309   9.017   0.851
27680SOL    HW186834   9.238   9.005   0.781
27680SOL    HW286835   9.310   8.938   0.911
27681SOL     OW86836   7.669   8.762   1.844
27681SOL    HW186837   7.604   8.689   1.823
27681SOL    HW286838   7.673   8.776   1.942
27682SOL     OW86839   7.527   8.688   0.653
27682SOL    HW186840   7.526   8.641   0.741
27682SOL    HW286841   7.609   8.660   0.602
27683SOL     OW86842   8.120   8.839   1.624
27683SOL    HW186843   8.042   8.789   1.662
27683SOL    HW286844   8.117   8.934   1.655
27684SOL     OW86845   9.272   7.640   1.227
27684SOL    HW186846   9.268   7.550   1.271
27684SOL    HW286847   9.275   7.629   1.128
27685SOL     OW86848   7.876   7.872   0.520
27685SOL    HW186849   7.906   7.800   0.458
27685SOL    HW286850   7.837   7.832   0.603
27686SOL     OW86851   9.153   8.935   1.104
27686SOL    HW186852   9.060   8.910   1.077
27686SOL    HW286853   9.179   8.885   1.186
27687SOL     OW86854   7.765   7.995   1.280
27687SOL    HW186855   7.803   7.936   1.352
27687SOL    HW286856   7.805   7.969   1.192
27688SOL     OW86857   8.260   9.034   0.687
27688SOL    HW186858   8.292   9.044   0.593
27688SOL    HW286859   8.181   8.972   0.689
27689SOL     OW86860   8.872   7.662   1.112
27689SOL    HW186861   8.924   7.597   1.167
27689SOL    HW286862   8.823   7.725   1.173
27690SOL     OW86863   8.449   7.482   1.154
27690SOL    HW186864   8.386   7.410   1.123
27690SOL    HW286865   8.542   7.446   1.154
27691SOL     OW86866   8.218   8.778   0.301
27691SOL    HW186867   8.172   8.691   0.318
27691SOL    HW286868   8.309   8.775   0.342
27692SOL     OW86869   8.066   9.015   1.284
27692SOL    HW186870   8.061   9.097   1.341
27692SOL    HW286871   8.155   9.012   1.239
27693SOL     OW86872   8.800   7.500   0.168
27693SOL    HW186873   8.835   7.459   0.084
27693SOL    HW286874   8.710   7.462   0.188
27694SOL     OW86875   8.748   7.901   0.691
27694SOL    HW186876   8.689   7.981   0.695
27694SOL    HW286877   8.763   7.866   0.784
27695SOL     OW86878   9.041   7.669   0.882
27695SOL    HW186879   8.957   7.668   0.936
27695SOL    HW286880   9.043   7.752   0.826
27696SOL     OW86881   7.487   8.525   0.300
27696SOL    HW186882   7.586   8.514   0.291
27696SOL    HW286883   7.447   8.439   0.332
27697SOL     OW86884   8.323   9.094   0.337
27697SOL    HW186885   8.246   9.059   0.283
27697SOL    HW286886   8.291   9.165   0.399
27698SOL     OW86887   7.678   8.076   1.975
27698SOL    HW186888   7.585   8.074   2.012
27698SOL    HW286889   7.679   8.037   1.883
27699SOL     OW86890   7.673   7.723   2.858
27699SOL    HW186891   7.708   7.706   2.950
27699SOL    HW286892   7.585   7.678   2.846
27700SOL     OW86893   7.467   7.816   2.509
27700SOL    HW186894   7.385   7.859   2.548
27700SOL    HW286895   7.439   7.743   2.446
27701SOL     OW86896   8.017   8.723   3.027
27701SOL    HW186897   7.924   8.716   2.990
27701SOL    HW286898   8.028   8.812   3.071
27702SOL     OW86899   9.003   8.959   2.565
27702SOL    HW186900   8.946   8.943   2.646
27702SOL    HW286901   8.944   8.969   2.485
27703SOL     OW86902   8.583   8.151   2.579
27703SOL    HW186903   8.640   8.229   2.554
27703SOL    HW286904   8.523   8.177   2.655
27704SOL     OW86905   9.203   8.055   2.093
27704SOL    HW186906   9.191   8.042   1.994
27704SOL    HW286907   9.173   7.974   2.142
27705SOL     OW86908   8.216   8.592   2.885
27705SOL    HW186909   8.138   8.609   2.945
27705SOL    HW286910   8.250   8.679   2.849
27706SOL     OW86911   8.298   8.246   3.685
27706SOL    HW186912   8.294   8.322   3.750
27706SOL    HW286913   8.320   8.282   3.594
27707SOL     OW86914   8.134   8.609   3.665
27707SOL    HW186915   8.194   8.688   3.679
27707SOL    HW286916   8.048   8.640   3.624
27708SOL     OW86917   7.783   8.883   2.923
27708SOL    HW186918   7.705   8.852   2.870
27708SOL    HW286919   7.841   8.941   2.866
27709SOL     OW86920   8.908   8.953   3.201
27709SOL    HW186921   8.932   9.047   3.227
27709SOL    HW286922   8.892   8.899   3.283
27710SOL     OW86923   7.886   7.840   3.361
27710SOL    HW186924   7.968   7.784   3.370
27710SOL    HW286925   7.805   7.782   3.365
27711SOL     OW86926   9.051   7.895   2.599
27711SOL    HW186927   8.977   7.941   2.549
27711SOL    HW286928   9.102   7.963   2.652
27712SOL     OW86929   7.679   9.161   2.345
27712SOL    HW186930   7.713   9.238   2.399
27712SOL    HW286931   7.723   9.161   2.255
27713SOL     OW86932   7.678   8.882   2.400
27713SOL    HW186933   7.652   8.978   2.400
27713SOL    HW286934   7.607   8.828   2.445
27714SOL     OW86935   7.688   8.539   2.748
27714SOL    HW186936   7.702   8.455   2.800
27714SOL    HW286937   7.633   8.603   2.803
27715SOL     OW86938   8.068   9.234   3.301
27715SOL    HW186939   7.976   9.217   3.336
27715SOL    HW286940   8.096   9.326   3.327
27716SOL     OW86941   8.054   8.412   1.985
27716SOL    HW186942   8.061   8.496   1.931
27716SOL    HW286943   8.100   8.425   2.073
27717SOL     OW86944   9.042   7.562   3.342
27717SOL    HW186945   9.024   7.629   3.270
27717SOL    HW286946   9.039   7.608   3.431
27718SOL     OW86947   7.570   8.091   2.425
27718SOL    HW186948   7.525   8.003   2.442
27718SOL    HW286949   7.569   8.145   2.509
27719SOL     OW86950   9.290   9.215   2.221
27719SOL    HW186951   9.344   9.186   2.301
27719SOL    HW286952   9.320   9.305   2.192
27720SOL     OW86953   7.475   9.044   1.979
27720SOL    HW186954   7.456   8.948   2.000
27720SOL    HW286955   7.442   9.102   2.054
27721SOL     OW86956   9.137   8.370   2.474
27721SOL    HW186957   9.232   8.341   2.482
27721SOL    HW286958   9.129   8.435   2.399
27722SOL     OW86959   9.089   8.556   2.294
27722SOL    HW186960   9.175   8.558   2.242
27722SOL    HW286961   9.103   8.603   2.382
27723SOL     OW86962   7.561   8.185   3.459
27723SOL    HW186963   7.649   8.172   3.504
27723SOL    HW286964   7.548   8.282   3.437
27724SOL     OW86965   8.061   8.813   2.588
27724SOL    HW186966   8.012   8.726   2.597
27724SOL    HW286967   8.038   8.856   2.501
27725SOL     OW86968   8.257   7.452   2.364
27725SOL    HW186969   8.297   7.543   2.355
27725SOL    HW286970   8.157   7.460   2.370
27726SOL     OW86971   7.645   8.424   3.126
27726SOL    HW186972   7.734   8.379   3.112
27726SOL    HW286973   7.572   8.359   3.107
27727SOL     OW86974   8.973   8.447   2.052
27727SOL    HW186975   8.910   8.371   2.065
27727SOL    HW286976   9.021   8.465   2.138
27728SOL     OW86977   8.635   9.240   3.478
27728SOL    HW186978   8.659   9.300   3.402
27728SOL    HW286979   8.642   9.145   3.448
27729SOL     OW86980   7.765   7.699   3.663
27729SOL    HW186981   7.836   7.770   3.669
27729SOL    HW286982   7.677   7.738   3.691
27730SOL     OW86983   8.914   8.865   2.815
27730SOL    HW186984   8.855   8.871   2.895
27730SOL    HW286985   8.899   8.777   2.769
27731SOL     OW86986   9.115   9.162   2.434
27731SOL    HW186987   9.074   9.139   2.346
27731SOL    HW286988   9.097   9.088   2.499
27732SOL     OW86989   8.046   8.177   2.132
27732SOL    HW186990   8.070   8.246   2.064
27732SOL    HW286991   7.968   8.210   2.186
27733SOL     OW86992   8.729   7.793   2.806
27733SOL    HW186993   8.643   7.743   2.793
27733SOL    HW286994   8.791   7.739   2.862
27734SOL     OW86995   9.024   9.110   2.169
27734SOL    HW186996   9.113   9.156   2.172
27734SOL    HW286997   9.003   9.086   2.074
27735SOL     OW86998   8.255   8.053   3.327
27735SOL    HW186999   8.208   8.050   3.416
27735SOL    HW287000   8.204   7.998   3.261
27736SOL     OW87001   8.842   7.917   3.536
27736SOL    HW187002   8.822   7.960   3.624
27736SOL    HW287003   8.920   7.855   3.545
27737SOL     OW87004   8.439   7.858   3.104
27737SOL    HW187005   8.362   7.892   3.158
27737SOL    HW287006   8.405   7.807   3.025
27738SOL     OW87007   8.489   8.149   2.291
27738SOL    HW187008   8.515   8.145   2.387
27738SOL    HW287009   8.404   8.098   2.277
27739SOL     OW87010   7.524   8.259   2.651
27739SOL    HW187011   7.623   8.247   2.660
27739SOL    HW287012   7.500   8.354   2.672
27740SOL     OW87013   7.578   9.269   3.433
27740SOL    HW187014   7.568   9.254   3.532
27740SOL    HW287015   7.492   9.305   3.397
27741SOL     OW87016   8.313   7.796   2.057
27741SOL    HW187017   8.372   7.859   2.008
27741SOL    HW287018   8.332   7.702   2.028
27742SOL     OW87019   9.167   8.033   3.693
27742SOL    HW187020   9.141   8.122   3.657
27742SOL    HW287021   9.165   7.965   3.620
27743SOL     OW87022   8.810   8.592   2.407
27743SOL    HW187023   8.893   8.563   2.359
27743SOL    HW287024   8.761   8.659   2.351
27744SOL     OW87025   7.998   7.644   2.747
27744SOL    HW187026   7.993   7.639   2.847
27744SOL    HW287027   8.000   7.740   2.718
27745SOL     OW87028   8.456   8.904   2.339
27745SOL    HW187029   8.410   8.976   2.287
27745SOL    HW287030   8.452   8.924   2.437
27746SOL     OW87031   9.243   8.514   2.735
27746SOL    HW187032   9.181   8.499   2.659
27746SOL    HW287033   9.191   8.525   2.820
27747SOL     OW87034   7.769   8.391   2.104
27747SOL    HW187035   7.851   8.430   2.062
27747SOL    HW287036   7.742   8.309   2.055
27748SOL     OW87037   8.906   8.183   2.590
27748SOL    HW187038   8.901   8.118   2.665
27748SOL    HW287039   8.986   8.242   2.603
27749SOL     OW87040   7.909   8.714   3.589
27749SOL    HW187041   7.859   8.715   3.503
27749SOL    HW287042   7.846   8.696   3.665
27750SOL     OW87043   8.559   9.224   2.099
27750SOL    HW187044   8.499   9.162   2.149
27750SOL    HW287045   8.590   9.180   2.014
27751SOL     OW87046   7.650   7.733   3.360
27751SOL    HW187047   7.570   7.793   3.347
27751SOL    HW287048   7.640   7.684   3.446
27752SOL     OW87049   9.080   8.825   1.943
27752SOL    HW187050   9.048   8.919   1.933
27752SOL    HW287051   9.004   8.762   1.931
27753SOL     OW87052   7.912   9.191   2.185
27753SOL    HW187053   7.945   9.230   2.271
27753SOL    HW287054   7.988   9.184   2.120
27754SOL     OW87055   7.697   9.233   3.103
27754SOL    HW187056   7.754   9.168   3.153
27754SOL    HW287057   7.681   9.200   3.010
27755SOL     OW87058   8.388   9.146   2.766
27755SOL    HW187059   8.468   9.089   2.787
27755SOL    HW287060   8.339   9.106   2.689
27756SOL     OW87061   7.830   8.148   2.342
27756SOL    HW187062   7.875   8.058   2.339
27756SOL    HW287063   7.736   8.137   2.375
27757SOL     OW87064   8.995   7.670   3.591
27757SOL    HW187065   8.990   7.707   3.683
27757SOL    HW287066   8.923   7.601   3.579
27758SOL     OW87067   8.229   7.712   3.611
27758SOL    HW187068   8.296   7.651   3.654
27758SOL    HW287069   8.156   7.731   3.676
27759SOL     OW87070   8.799   8.038   3.295
27759SOL    HW187071   8.827   7.995   3.380
27759SOL    HW287072   8.824   8.134   3.296
27760SOL     OW87073   8.251   8.850   2.786
27760SOL    HW187074   8.341   8.864   2.744
27760SOL    HW287075   8.180   8.852   2.715
27761SOL     OW87076   8.370   7.951   2.761
27761SOL    HW187077   8.345   7.942   2.665
27761SOL    HW287078   8.418   7.869   2.792
27762SOL     OW87079   7.987   7.512   2.374
27762SOL    HW187080   7.906   7.513   2.432
27762SOL    HW287081   7.990   7.595   2.319
27763SOL     OW87082   8.882   8.636   1.903
27763SOL    HW187083   8.914   8.560   1.960
27763SOL    HW287084   8.790   8.663   1.933
27764SOL     OW87085   8.383   7.684   2.342
27764SOL    HW187086   8.335   7.725   2.264
27764SOL    HW287087   8.482   7.682   2.323
27765SOL     OW87088   8.524   8.131   3.326
27765SOL    HW187089   8.444   8.070   3.329
27765SOL    HW287090   8.605   8.078   3.302
27766SOL     OW87091   8.675   9.018   2.655
27766SOL    HW187092   8.696   9.092   2.590
27766SOL    HW287093   8.743   9.018   2.728
27767SOL     OW87094   7.907   8.600   2.603
27767SOL    HW187095   7.836   8.573   2.668
27767SOL    HW287096   7.881   8.572   2.510
27768SOL     OW87097   8.719   9.245   2.453
27768SOL    HW187098   8.763   9.309   2.389
27768SOL    HW287099   8.669   9.297   2.523
27769SOL     OW87100   8.480   7.997   1.878
27769SOL    HW187101   8.439   8.079   1.839
27769SOL    HW287102   8.544   8.023   1.951
27770SOL     OW87103   7.526   8.004   3.248
27770SOL    HW187104   7.618   8.003   3.207
27770SOL    HW287105   7.520   8.078   3.315
27771SOL     OW87106   8.009   7.670   3.009
27771SOL    HW187107   8.047   7.586   3.046
27771SOL    HW287108   7.921   7.689   3.053
27772SOL     OW87109   8.465   7.487   2.615
27772SOL    HW187110   8.393   7.492   2.546
27772SOL    HW287111   8.441   7.418   2.684
27773SOL     OW87112   8.877   8.621   2.729
27773SOL    HW187113   8.822   8.537   2.722
27773SOL    HW287114   8.903   8.650   2.637
27774SOL     OW87115   8.914   8.038   2.854
27774SOL    HW187116   8.884   7.943   2.861
27774SOL    HW287117   8.987   8.054   2.920
27775SOL     OW87118   9.305   8.281   2.239
27775SOL    HW187119   9.347   8.217   2.303
27775SOL    HW287120   9.267   8.230   2.161
27776SOL     OW87121   7.936   8.833   2.036
27776SOL    HW187122   7.849   8.818   2.083
27776SOL    HW287123   7.919   8.859   1.941
27777SOL     OW87124   8.838   8.023   1.940
27777SOL    HW187125   8.784   8.002   2.021
27777SOL    HW287126   8.929   7.982   1.949
27778SOL     OW87127   7.975   7.704   2.190
27778SOL    HW187128   8.002   7.645   2.115
27778SOL    HW287129   7.975   7.799   2.159
27779SOL     OW87130   9.202   8.671   3.450
27779SOL    HW187131   9.293   8.632   3.437
27779SOL    HW287132   9.210   8.767   3.474
27780SOL     OW87133   9.040   9.077   3.487
27780SOL    HW187134   9.067   9.111   3.397
27780SOL    HW287135   9.119   9.039   3.533
27781SOL     OW87136   8.559   8.643   2.962
27781SOL    HW187137   8.519   8.687   3.043
27781SOL    HW287138   8.518   8.680   2.879
27782SOL     OW87139   9.086   8.547   2.941
27782SOL    HW187140   9.091   8.628   3.000
27782SOL    HW287141   9.000   8.549   2.890
27783SOL     OW87142   8.363   7.537   3.264
27783SOL    HW187143   8.388   7.517   3.169
27783SOL    HW287144   8.435   7.593   3.306
27784SOL     OW87145   8.153   8.498   2.230
27784SOL    HW187146   8.139   8.505   2.329
27784SOL    HW287147   8.237   8.447   2.212
27785SOL     OW87148   7.858   8.261   3.113
27785SOL    HW187149   7.944   8.273   3.163
27785SOL    HW287150   7.816   8.174   3.140
27786SOL     OW87151   8.722   7.834   3.124
27786SOL    HW187152   8.743   7.908   3.188
27786SOL    HW287153   8.633   7.851   3.081
27787SOL     OW87154   7.512   9.012   3.193
27787SOL    HW187155   7.466   9.094   3.159
27787SOL    HW287156   7.610   9.031   3.202
27788SOL     OW87157   7.815   8.548   2.363
27788SOL    HW187158   7.808   8.631   2.307
27788SOL    HW287159   7.819   8.468   2.303
27789SOL     OW87160   8.014   7.985   2.727
27789SOL    HW187161   8.026   8.051   2.653
27789SOL    HW287162   8.060   8.019   2.810
27790SOL     OW87163   8.700   8.796   2.250
27790SOL    HW187164   8.750   8.873   2.290
27790SOL    HW287165   8.605   8.798   2.282
27791SOL     OW87166   8.720   8.893   3.004
27791SOL    HW187167   8.767   8.906   3.091
27791SOL    HW287168   8.654   8.819   3.013
27792SOL     OW87169   9.030   8.087   2.334
27792SOL    HW187170   8.999   8.148   2.407
27792SOL    HW287171   9.080   8.139   2.265
27793SOL     OW87172   7.802   8.958   3.191
27793SOL    HW187173   7.781   8.914   3.104
27793SOL    HW287174   7.899   8.984   3.194
27794SOL     OW87175   7.850   8.199   3.460
27794SOL    HW187176   7.918   8.254   3.413
27794SOL    HW287177   7.890   8.111   3.487
27795SOL     OW87178   9.035   8.227   3.532
27795SOL    HW187179   8.943   8.265   3.527
27795SOL    HW287180   9.095   8.274   3.467
27796SOL     OW87181   8.461   7.553   3.632
27796SOL    HW187182   8.467   7.638   3.580
27796SOL    HW287183   8.493   7.477   3.575
27797SOL     OW87184   7.952   7.498   3.602
27797SOL    HW187185   7.910   7.441   3.532
27797SOL    HW287186   7.886   7.567   3.634
27798SOL     OW87187   8.021   8.318   2.891
27798SOL    HW187188   8.065   8.407   2.882
27798SOL    HW287189   7.958   8.318   2.968
27799SOL     OW87190   8.808   8.310   2.907
27799SOL    HW187191   8.733   8.310   2.841
27799SOL    HW287192   8.845   8.218   2.916
27800SOL     OW87193   8.657   7.973   2.137
27800SOL    HW187194   8.670   7.889   2.191
27800SOL    HW287195   8.628   8.047   2.197
27801SOL     OW87196   7.755   7.661   3.093
27801SOL    HW187197   7.732   7.698   3.183
27801SOL    HW287198   7.725   7.566   3.087
27802SOL     OW87199   7.485   8.758   3.144
27802SOL    HW187200   7.538   8.709   3.212
27802SOL    HW287201   7.507   8.856   3.149
27803SOL     OW87202   9.176   8.383   3.716
27803SOL    HW187203   9.130   8.376   3.627
27803SOL    HW287204   9.114   8.427   3.782
27804SOL     OW87205   7.755   7.511   2.480
27804SOL    HW187206   7.744   7.605   2.513
27804SOL    HW287207   7.750   7.448   2.557
27805SOL     OW87208   8.428   9.021   3.562
27805SOL    HW187209   8.408   9.065   3.474
27805SOL    HW287210   8.467   8.930   3.546
27806SOL     OW87211   7.798   8.346   3.666
27806SOL    HW187212   7.874   8.390   3.714
27806SOL    HW287213   7.833   8.299   3.584
27807SOL     OW87214   8.751   8.286   1.904
27807SOL    HW187215   8.785   8.193   1.919
27807SOL    HW287216   8.769   8.313   1.809
27808SOL     OW87217   8.516   8.781   2.711
27808SOL    HW187218   8.523   8.697   2.656
27808SOL    HW287219   8.578   8.850   2.675
27809SOL     OW87220   7.767   8.258   2.811
27809SOL    HW187221   7.860   8.294   2.816
27809SOL    HW287222   7.761   8.173   2.863
27810SOL     OW87223   7.787   7.957   2.868
27810SOL    HW187224   7.735   7.874   2.851
27810SOL    HW287225   7.864   7.962   2.804
27811SOL     OW87226   8.586   7.828   3.540
27811SOL    HW187227   8.541   7.891   3.604
27811SOL    HW287228   8.679   7.859   3.523
27812SOL     OW87229   8.608   7.655   3.339
27812SOL    HW187230   8.608   7.719   3.416
27812SOL    HW287231   8.636   7.703   3.256
27813SOL     OW87232   7.456   8.774   2.062
27813SOL    HW187233   7.363   8.795   2.031
27813SOL    HW287234   7.466   8.675   2.075
27814SOL     OW87235   7.536   9.249   2.789
27814SOL    HW187236   7.494   9.163   2.762
27814SOL    HW287237   7.630   9.252   2.755
27815SOL     OW87238   7.488   7.992   2.976
27815SOL    HW187239   7.573   7.959   2.935
27815SOL    HW287240   7.501   8.007   3.074
27816SOL     OW87241   7.637   7.968   3.584
27816SOL    HW187242   7.696   7.928   3.514
27816SOL    HW287243   7.579   8.039   3.543
27817SOL     OW87244   8.817   8.398   3.522
27817SOL    HW187245   8.856   8.487   3.542
27817SOL    HW287246   8.827   8.378   3.425
27818SOL     OW87247   8.263   8.020   2.187
27818SOL    HW187248   8.270   7.931   2.141
27818SOL    HW287249   8.169   8.054   2.179
27819SOL     OW87250   7.700   9.012   3.606
27819SOL    HW187251   7.670   9.069   3.682
27819SOL    HW287252   7.693   8.915   3.632
27820SOL     OW87253   8.119   7.912   3.131
27820SOL    HW187254   8.085   7.823   3.101
27820SOL    HW287255   8.145   7.966   3.051
27821SOL     OW87256   8.378   9.126   3.327
27821SOL    HW187257   8.354   9.108   3.232
27821SOL    HW287258   8.408   9.220   3.337
27822SOL     OW87259   7.921   7.948   2.053
27822SOL    HW187260   7.982   8.028   2.057
27822SOL    HW287261   7.826   7.979   2.060
27823SOL     OW87262   7.607   8.585   3.328
27823SOL    HW187263   7.629   8.524   3.404
27823SOL    HW287264   7.617   8.536   3.242
27824SOL     OW87265   8.795   8.507   3.096
27824SOL    HW187266   8.819   8.444   3.022
27824SOL    HW287267   8.705   8.547   3.078
27825SOL     OW87268   8.750   8.303   2.171
27825SOL    HW187269   8.664   8.272   2.213
27825SOL    HW287270   8.746   8.289   2.072
27826SOL     OW87271   9.207   9.195   3.016
27826SOL    HW187272   9.268   9.225   2.943
27826SOL    HW287273   9.169   9.106   2.994
27827SOL     OW87274   8.700   9.179   2.990
27827SOL    HW187275   8.784   9.184   2.936
27827SOL    HW287276   8.677   9.083   3.008
27828SOL     OW87277   7.531   8.706   2.884
27828SOL    HW187278   7.526   8.705   2.984
27828SOL    HW287279   7.448   8.665   2.846
27829SOL     OW87280   8.136   9.110   3.578
27829SOL    HW187281   8.080   9.191   3.587
27829SOL    HW287282   8.188   9.114   3.492
27830SOL     OW87283   8.836   9.021   2.339
27830SOL    HW187284   8.903   9.033   2.265
27830SOL    HW287285   8.796   9.110   2.362
27831SOL     OW87286   7.578   9.242   3.713
27831SOL    HW187287   7.537   9.168   3.766
27831SOL    HW287288   7.642   9.293   3.771
27832SOL     OW87289   8.728   8.375   2.534
27832SOL    HW187290   8.788   8.294   2.536
27832SOL    HW287291   8.768   8.444   2.474
27833SOL     OW87292   8.120   9.064   2.016
27833SOL    HW187293   8.129   9.074   1.917
27833SOL    HW287294   8.080   8.975   2.037
27834SOL     OW87295   9.098   9.168   3.256
27834SOL    HW187296   9.151   9.178   3.172
27834SOL    HW287297   9.071   9.258   3.290
27835SOL     OW87298   9.289   7.623   2.825
27835SOL    HW187299   9.328   7.538   2.789
27835SOL    HW287300   9.191   7.625   2.806
27836SOL     OW87301   7.711   7.774   2.582
27836SOL    HW187302   7.632   7.825   2.548
27836SOL    HW287303   7.702   7.759   2.680
27837SOL     OW87304   8.642   9.060   1.893
27837SOL    HW187305   8.648   8.967   1.930
27837SOL    HW287306   8.583   9.060   1.813
27838SOL     OW87307   8.270   8.450   3.234
27838SOL    HW187308   8.310   8.449   3.142
27838SOL    HW287309   8.280   8.542   3.274
27839SOL     OW87310   8.364   8.358   2.153
27839SOL    HW187311   8.427   8.396   2.085
27839SOL    HW287312   8.404   8.275   2.192
27840SOL     OW87313   8.952   9.055   1.906
27840SOL    HW187314   8.860   9.092   1.913
27840SOL    HW287315   8.990   9.075   1.816
27841SOL     OW87316   7.820   8.736   3.352
27841SOL    HW187317   7.807   8.829   3.318
27841SOL    HW287318   7.736   8.684   3.339
27842SOL     OW87319   9.062   8.740   3.151
27842SOL    HW187320   9.122   8.743   3.231
27842SOL    HW287321   8.987   8.804   3.164
27843SOL     OW87322   8.462   7.684   2.833
27843SOL    HW187323   8.454   7.648   2.740
27843SOL    HW287324   8.460   7.608   2.898
27844SOL     OW87325   7.703   8.796   2.152
27844SOL    HW187326   7.607   8.797   2.125
27844SOL    HW287327   7.715   8.849   2.236
27845SOL     OW87328   7.553   8.461   3.588
27845SOL    HW187329   7.476   8.428   3.642
27845SOL    HW287330   7.638   8.431   3.630
27846SOL     OW87331   8.120   7.651   3.351
27846SOL    HW187332   8.210   7.635   3.311
27846SOL    HW287333   8.128   7.656   3.450
27847SOL     OW87334   7.523   7.793   1.895
27847SOL    HW187335   7.431   7.765   1.866
27847SOL    HW287336   7.554   7.870   1.839
27848SOL     OW87337   8.888   8.304   3.260
27848SOL    HW187338   8.831   8.356   3.197
27848SOL    HW287339   8.984   8.316   3.236
27849SOL     OW87340   7.520   7.614   2.180
27849SOL    HW187341   7.503   7.697   2.126
27849SOL    HW287342   7.610   7.577   2.158
27850SOL     OW87343   8.631   8.783   1.981
27850SOL    HW187344   8.532   8.772   1.983
27850SOL    HW287345   8.665   8.798   2.074
27851SOL     OW87346   8.061   8.290   3.293
27851SOL    HW187347   8.117   8.371   3.276
27851SOL    HW287348   8.120   8.210   3.296
27852SOL     OW87349   8.941   9.215   2.821
27852SOL    HW187350   8.974   9.279   2.752
27852SOL    HW287351   9.007   9.209   2.896
27853SOL     OW87352   8.164   8.013   3.570
27853SOL    HW187353   8.183   8.078   3.644
27853SOL    HW287354   8.224   7.933   3.579
27854SOL     OW87355   8.898   8.668   3.495
27854SOL    HW187356   8.889   8.658   3.594
27854SOL    HW287357   8.994   8.661   3.469
27855SOL     OW87358   7.838   9.189   3.422
27855SOL    HW187359   7.747   9.230   3.420
27855SOL    HW287360   7.831   9.095   3.454
27856SOL     OW87361   9.122   8.331   3.116
27856SOL    HW187362   9.095   8.242   3.079
27856SOL    HW287363   9.123   8.399   3.043
27857SOL     OW87364   8.673   7.773   2.311
27857SOL    HW187365   8.738   7.699   2.300
27857SOL    HW287366   8.693   7.823   2.395
27858SOL     OW87367   9.225   7.790   3.504
27858SOL    HW187368   9.208   7.821   3.410
27858SOL    HW287369   9.141   7.753   3.542
27859SOL     OW87370   9.178   8.382   3.379
27859SOL    HW187371   9.216   8.473   3.394
27859SOL    HW287372   9.170   8.365   3.280
27860SOL     OW87373   8.307   8.822   1.878
27860SOL    HW187374   8.261   8.837   1.966
27860SOL    HW287375   8.351   8.907   1.848
27861SOL     OW87376   8.531   8.432   1.949
27861SOL    HW187377   8.508   8.485   1.867
27861SOL    HW287378   8.612   8.376   1.930
27862SOL     OW87379   9.309   9.017   2.713
27862SOL    HW187380   9.238   9.005   2.643
27862SOL    HW287381   9.310   8.938   2.773
27863SOL     OW87382   7.669   8.762   3.706
27863SOL    HW187383   7.604   8.689   3.685
27863SOL    HW287384   7.673   8.776   3.804
27864SOL     OW87385   7.527   8.688   2.515
27864SOL    HW187386   7.526   8.641   2.603
27864SOL    HW287387   7.609   8.660   2.464
27865SOL     OW87388   8.120   8.839   3.486
27865SOL    HW187389   8.042   8.789   3.524
27865SOL    HW287390   8.117   8.934   3.517
27866SOL     OW87391   7.876   7.872   2.382
27866SOL    HW187392   7.906   7.800   2.320
27866SOL    HW287393   7.837   7.832   2.465
27867SOL     OW87394   9.153   8.935   2.966
27867SOL    HW187395   9.060   8.910   2.939
27867SOL    HW287396   9.179   8.885   3.048
27868SOL     OW87397   7.765   7.995   3.142
27868SOL    HW187398   7.803   7.936   3.214
27868SOL    HW287399   7.805   7.969   3.054
27869SOL     OW87400   8.872   7.662   2.974
27869SOL    HW187401   8.924   7.597   3.029
27869SOL    HW287402   8.823   7.725   3.035
27870SOL     OW87403   8.449   7.482   3.016
27870SOL    HW187404   8.386   7.410   2.985
27870SOL    HW287405   8.542   7.446   3.016
27871SOL     OW87406   8.218   8.778   2.163
27871SOL    HW187407   8.172   8.691   2.180
27871SOL    HW287408   8.309   8.775   2.204
27872SOL     OW87409   8.066   9.015   3.146
27872SOL    HW187410   8.061   9.097   3.203
27872SOL    HW287411   8.155   9.012   3.101
27873SOL     OW87412   8.800   7.500   2.030
27873SOL    HW187413   8.835   7.459   1.946
27873SOL    HW287414   8.710   7.462   2.050
27874SOL     OW87415   8.748   7.901   2.553
27874SOL    HW187416   8.689   7.981   2.557
27874SOL    HW287417   8.763   7.866   2.646
27875SOL     OW87418   9.041   7.669   2.744
27875SOL    HW187419   8.957   7.668   2.798
27875SOL    HW287420   9.043   7.752   2.688
27876SOL     OW87421   7.487   8.525   2.162
27876SOL    HW187422   7.586   8.514   2.153
27876SOL    HW287423   7.447   8.439   2.194
27877SOL     OW87424   7.678   8.076   3.837
27877SOL    HW187425   7.585   8.074   3.874
27877SOL    HW287426   7.679   8.037   3.745
27878SOL     OW87427   7.673   7.723   4.720
27878SOL    HW187428   7.708   7.706   4.812
27878SOL    HW287429   7.585   7.678   4.708
27879SOL     OW87430   7.467   7.816   4.371
27879SOL    HW187431   7.385   7.859   4.410
27879SOL    HW287432   7.439   7.743   4.308
27880SOL     OW87433   8.017   8.723   4.889
27880SOL    HW187434   7.924   8.716   4.852
27880SOL    HW287435   8.028   8.812   4.933
27881SOL     OW87436   9.003   8.959   4.427
27881SOL    HW187437   8.946   8.943   4.508
27881SOL    HW287438   8.944   8.969   4.347
27882SOL     OW87439   9.203   8.055   3.955
27882SOL    HW187440   9.191   8.042   3.856
27882SOL    HW287441   9.173   7.974   4.004
27883SOL     OW87442   8.216   8.592   4.747
27883SOL    HW187443   8.138   8.609   4.807
27883SOL    HW287444   8.250   8.679   4.711
27884SOL     OW87445   8.298   8.246   5.547
27884SOL    HW187446   8.294   8.322   5.612
27884SOL    HW287447   8.320   8.282   5.456
27885SOL     OW87448   8.133   8.460   4.389
27885SOL    HW187449   8.202   8.444   4.459
27885SOL    HW287450   8.060   8.517   4.427
27886SOL     OW87451   8.134   8.609   5.527
27886SOL    HW187452   8.194   8.688   5.541
27886SOL    HW287453   8.048   8.640   5.486
27887SOL     OW87454   7.783   8.883   4.785
27887SOL    HW187455   7.705   8.852   4.732
27887SOL    HW287456   7.841   8.941   4.728
27888SOL     OW87457   8.908   8.953   5.063
27888SOL    HW187458   8.932   9.047   5.089
27888SOL    HW287459   8.892   8.899   5.145
27889SOL     OW87460   7.886   7.840   5.223
27889SOL    HW187461   7.968   7.784   5.232
27889SOL    HW287462   7.805   7.782   5.227
27890SOL     OW87463   7.679   9.161   4.207
27890SOL    HW187464   7.713   9.238   4.261
27890SOL    HW287465   7.723   9.161   4.117
27891SOL     OW87466   8.575   8.789   5.414
27891SOL    HW187467   8.622   8.789   5.502
27891SOL    HW287468   8.527   8.702   5.403
27892SOL     OW87469   7.678   8.882   4.262
27892SOL    HW187470   7.652   8.978   4.262
27892SOL    HW287471   7.607   8.828   4.307
27893SOL     OW87472   7.688   8.539   4.610
27893SOL    HW187473   7.702   8.455   4.662
27893SOL    HW287474   7.633   8.603   4.665
27894SOL     OW87475   8.068   9.234   5.163
27894SOL    HW187476   7.976   9.217   5.198
27894SOL    HW287477   8.096   9.326   5.189
27895SOL     OW87478   8.054   8.412   3.847
27895SOL    HW187479   8.061   8.496   3.793
27895SOL    HW287480   8.100   8.425   3.935
27896SOL     OW87481   9.042   7.562   5.204
27896SOL    HW187482   9.024   7.629   5.132
27896SOL    HW287483   9.039   7.608   5.293
27897SOL     OW87484   7.570   8.091   4.287
27897SOL    HW187485   7.525   8.003   4.304
27897SOL    HW287486   7.569   8.145   4.371
27898SOL     OW87487   9.290   9.215   4.083
27898SOL    HW187488   9.344   9.186   4.163
27898SOL    HW287489   9.320   9.305   4.054
27899SOL     OW87490   7.475   9.044   3.841
27899SOL    HW187491   7.456   8.948   3.862
27899SOL    HW287492   7.442   9.102   3.916
27900SOL     OW87493   9.137   8.370   4.336
27900SOL    HW187494   9.232   8.341   4.344
27900SOL    HW287495   9.129   8.435   4.261
27901SOL     OW87496   9.089   8.556   4.156
27901SOL    HW187497   9.175   8.558   4.104
27901SOL    HW287498   9.103   8.603   4.244
27902SOL     OW87499   7.561   8.185   5.321
27902SOL    HW187500   7.649   8.172   5.366
27902SOL    HW287501   7.548   8.282   5.299
27903SOL     OW87502   8.061   8.813   4.450
27903SOL    HW187503   8.012   8.726   4.459
27903SOL    HW287504   8.038   8.856   4.363
27904SOL     OW87505   8.741   8.676   5.147
27904SOL    HW187506   8.778   8.603   5.089
27904SOL    HW287507   8.793   8.681   5.232
27905SOL     OW87508   8.257   7.452   4.226
27905SOL    HW187509   8.297   7.543   4.217
27905SOL    HW287510   8.157   7.460   4.232
27906SOL     OW87511   7.645   8.424   4.988
27906SOL    HW187512   7.734   8.379   4.974
27906SOL    HW287513   7.572   8.359   4.969
27907SOL     OW87514   8.973   8.447   3.914
27907SOL    HW187515   8.910   8.371   3.927
27907SOL    HW287516   9.021   8.465   4.000
27908SOL     OW87517   7.765   7.699   5.525
27908SOL    HW187518   7.836   7.770   5.531
27908SOL    HW287519   7.677   7.738   5.553
27909SOL     OW87520   8.914   8.865   4.677
27909SOL    HW187521   8.855   8.871   4.757
27909SOL    HW287522   8.899   8.777   4.631
27910SOL     OW87523   9.115   9.162   4.296
27910SOL    HW187524   9.074   9.139   4.208
27910SOL    HW287525   9.097   9.088   4.361
27911SOL     OW87526   8.046   8.177   3.994
27911SOL    HW187527   8.070   8.246   3.926
27911SOL    HW287528   7.968   8.210   4.048
27912SOL     OW87529   8.729   7.793   4.668
27912SOL    HW187530   8.643   7.743   4.655
27912SOL    HW287531   8.791   7.739   4.724
27913SOL     OW87532   9.024   9.110   4.031
27913SOL    HW187533   9.113   9.156   4.034
27913SOL    HW287534   9.003   9.086   3.936
27914SOL     OW87535   8.255   8.053   5.189
27914SOL    HW187536   8.208   8.050   5.278
27914SOL    HW287537   8.204   7.998   5.123
27915SOL     OW87538   8.842   7.917   5.398
27915SOL    HW187539   8.822   7.960   5.486
27915SOL    HW287540   8.920   7.855   5.407
27916SOL     OW87541   8.421   8.338   5.296
27916SOL    HW187542   8.467   8.254   5.267
27916SOL    HW287543   8.365   8.372   5.221
27917SOL     OW87544   8.439   7.858   4.966
27917SOL    HW187545   8.362   7.892   5.020
27917SOL    HW287546   8.405   7.807   4.887
27918SOL     OW87547   8.489   8.149   4.153
27918SOL    HW187548   8.515   8.145   4.249
27918SOL    HW287549   8.404   8.098   4.139
27919SOL     OW87550   7.524   8.259   4.513
27919SOL    HW187551   7.623   8.247   4.522
27919SOL    HW287552   7.500   8.354   4.534
27920SOL     OW87553   7.578   9.269   5.295
27920SOL    HW187554   7.568   9.254   5.394
27920SOL    HW287555   7.492   9.305   5.259
27921SOL     OW87556   8.313   7.796   3.919
27921SOL    HW187557   8.372   7.859   3.870
27921SOL    HW287558   8.332   7.702   3.890
27922SOL     OW87559   9.167   8.033   5.555
27922SOL    HW187560   9.141   8.122   5.519
27922SOL    HW287561   9.165   7.965   5.482
27923SOL     OW87562   8.810   8.592   4.269
27923SOL    HW187563   8.893   8.563   4.221
27923SOL    HW287564   8.761   8.659   4.213
27924SOL     OW87565   7.998   7.644   4.609
27924SOL    HW187566   7.993   7.639   4.709
27924SOL    HW287567   8.000   7.740   4.580
27925SOL     OW87568   8.456   8.904   4.201
27925SOL    HW187569   8.410   8.976   4.149
27925SOL    HW287570   8.452   8.924   4.299
27926SOL     OW87571   9.243   8.514   4.597
27926SOL    HW187572   9.181   8.499   4.521
27926SOL    HW287573   9.191   8.525   4.682
27927SOL     OW87574   8.675   8.998   5.230
27927SOL    HW187575   8.681   8.921   5.294
27927SOL    HW287576   8.623   8.972   5.150
27928SOL     OW87577   7.769   8.391   3.966
27928SOL    HW187578   7.851   8.430   3.924
27928SOL    HW287579   7.742   8.309   3.917
27929SOL     OW87580   7.909   8.714   5.451
27929SOL    HW187581   7.859   8.715   5.365
27929SOL    HW287582   7.846   8.696   5.527
27930SOL     OW87583   8.559   9.224   3.961
27930SOL    HW187584   8.499   9.162   4.011
27930SOL    HW287585   8.590   9.180   3.876
27931SOL     OW87586   7.650   7.733   5.222
27931SOL    HW187587   7.570   7.793   5.209
27931SOL    HW287588   7.640   7.684   5.308
27932SOL     OW87589   9.080   8.825   3.805
27932SOL    HW187590   9.048   8.919   3.795
27932SOL    HW287591   9.004   8.762   3.793
27933SOL     OW87592   7.912   9.191   4.047
27933SOL    HW187593   7.945   9.230   4.133
27933SOL    HW287594   7.988   9.184   3.982
27934SOL     OW87595   8.848   7.555   4.150
27934SOL    HW187596   8.824   7.518   4.060
27934SOL    HW287597   8.947   7.571   4.154
27935SOL     OW87598   7.697   9.233   4.965
27935SOL    HW187599   7.754   9.168   5.015
27935SOL    HW287600   7.681   9.200   4.872
27936SOL     OW87601   8.388   9.146   4.628
27936SOL    HW187602   8.468   9.089   4.649
27936SOL    HW287603   8.339   9.106   4.551
27937SOL     OW87604   7.830   8.148   4.204
27937SOL    HW187605   7.875   8.058   4.201
27937SOL    HW287606   7.736   8.137   4.237
27938SOL     OW87607   8.995   7.670   5.453
27938SOL    HW187608   8.990   7.707   5.545
27938SOL    HW287609   8.923   7.601   5.441
27939SOL     OW87610   8.062   7.570   3.841
27939SOL    HW187611   8.160   7.548   3.848
27939SOL    HW287612   8.031   7.553   3.748
27940SOL     OW87613   8.229   7.712   5.473
27940SOL    HW187614   8.296   7.651   5.516
27940SOL    HW287615   8.156   7.731   5.538
27941SOL     OW87616   8.336   8.962   4.919
27941SOL    HW187617   8.313   8.937   4.825
27941SOL    HW287618   8.397   8.893   4.958
27942SOL     OW87619   8.799   8.038   5.157
27942SOL    HW187620   8.827   7.995   5.242
27942SOL    HW287621   8.824   8.134   5.158
27943SOL     OW87622   8.251   8.850   4.648
27943SOL    HW187623   8.341   8.864   4.606
27943SOL    HW287624   8.180   8.852   4.577
27944SOL     OW87625   8.370   7.951   4.623
27944SOL    HW187626   8.345   7.942   4.527
27944SOL    HW287627   8.418   7.869   4.654
27945SOL     OW87628   7.987   7.512   4.236
27945SOL    HW187629   7.906   7.513   4.294
27945SOL    HW287630   7.990   7.595   4.181
27946SOL     OW87631   8.882   8.636   3.765
27946SOL    HW187632   8.914   8.560   3.822
27946SOL    HW287633   8.790   8.663   3.795
27947SOL     OW87634   7.745   7.483   3.895
27947SOL    HW187635   7.794   7.567   3.874
27947SOL    HW287636   7.807   7.418   3.940
27948SOL     OW87637   8.383   7.684   4.204
27948SOL    HW187638   8.335   7.725   4.126
27948SOL    HW287639   8.482   7.682   4.185
27949SOL     OW87640   8.524   8.131   5.188
27949SOL    HW187641   8.444   8.070   5.191
27949SOL    HW287642   8.605   8.078   5.164
27950SOL     OW87643   8.675   9.018   4.517
27950SOL    HW187644   8.696   9.092   4.452
27950SOL    HW287645   8.743   9.018   4.590
27951SOL     OW87646   7.907   8.600   4.465
27951SOL    HW187647   7.836   8.573   4.530
27951SOL    HW287648   7.881   8.572   4.372
27952SOL     OW87649   8.719   9.245   4.315
27952SOL    HW187650   8.763   9.309   4.251
27952SOL    HW287651   8.669   9.297   4.385
27953SOL     OW87652   8.480   7.997   3.740
27953SOL    HW187653   8.439   8.079   3.701
27953SOL    HW287654   8.544   8.023   3.813
27954SOL     OW87655   7.526   8.004   5.110
27954SOL    HW187656   7.618   8.003   5.069
27954SOL    HW287657   7.520   8.078   5.177
27955SOL     OW87658   8.009   7.670   4.871
27955SOL    HW187659   8.047   7.586   4.908
27955SOL    HW287660   7.921   7.689   4.915
27956SOL     OW87661   8.314   7.902   4.366
27956SOL    HW187662   8.282   7.974   4.304
27956SOL    HW287663   8.338   7.821   4.313
27957SOL     OW87664   8.465   7.487   4.477
27957SOL    HW187665   8.393   7.492   4.408
27957SOL    HW287666   8.441   7.418   4.546
27958SOL     OW87667   8.877   8.621   4.591
27958SOL    HW187668   8.822   8.537   4.584
27958SOL    HW287669   8.903   8.650   4.499
27959SOL     OW87670   8.914   8.038   4.716
27959SOL    HW187671   8.884   7.943   4.723
27959SOL    HW287672   8.987   8.054   4.782
27960SOL     OW87673   9.305   8.281   4.101
27960SOL    HW187674   9.347   8.217   4.165
27960SOL    HW287675   9.267   8.230   4.023
27961SOL     OW87676   7.936   8.833   3.898
27961SOL    HW187677   7.849   8.818   3.945
27961SOL    HW287678   7.919   8.859   3.803
27962SOL     OW87679   9.112   8.728   4.381
27962SOL    HW187680   9.211   8.736   4.395
27962SOL    HW287681   9.067   8.812   4.412
27963SOL     OW87682   8.838   8.023   3.802
27963SOL    HW187683   8.784   8.002   3.883
27963SOL    HW287684   8.929   7.982   3.811
27964SOL     OW87685   7.975   7.704   4.052
27964SOL    HW187686   8.002   7.645   3.977
27964SOL    HW287687   7.975   7.799   4.021
27965SOL     OW87688   9.202   8.671   5.312
27965SOL    HW187689   9.293   8.632   5.299
27965SOL    HW287690   9.210   8.767   5.336
27966SOL     OW87691   8.512   8.795   5.064
27966SOL    HW187692   8.432   8.772   5.119
27966SOL    HW287693   8.595   8.769   5.113
27967SOL     OW87694   9.040   9.077   5.349
27967SOL    HW187695   9.067   9.111   5.259
27967SOL    HW287696   9.119   9.039   5.395
27968SOL     OW87697   8.559   8.643   4.824
27968SOL    HW187698   8.519   8.687   4.905
27968SOL    HW287699   8.518   8.680   4.741
27969SOL     OW87700   9.086   8.547   4.803
27969SOL    HW187701   9.091   8.628   4.862
27969SOL    HW287702   9.000   8.549   4.752
27970SOL     OW87703   8.363   7.537   5.126
27970SOL    HW187704   8.388   7.517   5.031
27970SOL    HW287705   8.435   7.593   5.168
27971SOL     OW87706   8.428   8.564   5.443
27971SOL    HW187707   8.329   8.570   5.453
27971SOL    HW287708   8.451   8.484   5.387
27972SOL     OW87709   8.153   8.498   4.092
27972SOL    HW187710   8.139   8.505   4.191
27972SOL    HW287711   8.237   8.447   4.074
27973SOL     OW87712   7.858   8.261   4.975
27973SOL    HW187713   7.944   8.273   5.025
27973SOL    HW287714   7.816   8.174   5.002
27974SOL     OW87715   8.722   7.834   4.986
27974SOL    HW187716   8.743   7.908   5.050
27974SOL    HW287717   8.633   7.851   4.943
27975SOL     OW87718   7.512   9.012   5.055
27975SOL    HW187719   7.466   9.094   5.021
27975SOL    HW287720   7.610   9.031   5.064
27976SOL     OW87721   7.815   8.548   4.225
27976SOL    HW187722   7.808   8.631   4.169
27976SOL    HW287723   7.819   8.468   4.165
27977SOL     OW87724   8.014   7.985   4.589
27977SOL    HW187725   8.026   8.051   4.515
27977SOL    HW287726   8.060   8.019   4.672
27978SOL     OW87727   8.700   8.796   4.112
27978SOL    HW187728   8.750   8.873   4.152
27978SOL    HW287729   8.605   8.798   4.144
27979SOL     OW87730   8.720   8.893   4.866
27979SOL    HW187731   8.767   8.906   4.953
27979SOL    HW287732   8.654   8.819   4.875
27980SOL     OW87733   7.802   8.958   5.053
27980SOL    HW187734   7.781   8.914   4.966
27980SOL    HW287735   7.899   8.984   5.056
27981SOL     OW87736   7.850   8.199   5.322
27981SOL    HW187737   7.918   8.254   5.275
27981SOL    HW287738   7.890   8.111   5.349
27982SOL     OW87739   9.035   8.227   5.394
27982SOL    HW187740   8.943   8.265   5.389
27982SOL    HW287741   9.095   8.274   5.329
27983SOL     OW87742   8.461   7.553   5.494
27983SOL    HW187743   8.467   7.638   5.442
27983SOL    HW287744   8.493   7.477   5.437
27984SOL     OW87745   7.952   7.498   5.464
27984SOL    HW187746   7.910   7.441   5.394
27984SOL    HW287747   7.886   7.567   5.496
27985SOL     OW87748   8.021   8.318   4.753
27985SOL    HW187749   8.065   8.407   4.744
27985SOL    HW287750   7.958   8.318   4.830
27986SOL     OW87751   8.808   8.310   4.769
27986SOL    HW187752   8.733   8.310   4.703
27986SOL    HW287753   8.845   8.218   4.778
27987SOL     OW87754   8.657   7.973   3.999
27987SOL    HW187755   8.670   7.889   4.053
27987SOL    HW287756   8.628   8.047   4.059
27988SOL     OW87757   7.755   7.661   4.955
27988SOL    HW187758   7.732   7.698   5.045
27988SOL    HW287759   7.725   7.566   4.949
27989SOL     OW87760   7.485   8.758   5.006
27989SOL    HW187761   7.538   8.709   5.074
27989SOL    HW287762   7.507   8.856   5.011
27990SOL     OW87763   8.180   8.082   4.788
27990SOL    HW187764   8.239   8.056   4.712
27990SOL    HW287765   8.152   8.178   4.777
27991SOL     OW87766   9.176   8.383   5.578
27991SOL    HW187767   9.130   8.376   5.489
27991SOL    HW287768   9.114   8.427   5.644
27992SOL     OW87769   7.755   7.511   4.342
27992SOL    HW187770   7.744   7.605   4.375
27992SOL    HW287771   7.750   7.448   4.419
27993SOL     OW87772   8.471   8.214   4.690
27993SOL    HW187773   8.486   8.235   4.786
27993SOL    HW287774   8.441   8.119   4.681
27994SOL     OW87775   8.428   9.021   5.424
27994SOL    HW187776   8.408   9.065   5.336
27994SOL    HW287777   8.467   8.930   5.408
27995SOL     OW87778   9.307   8.966   5.329
27995SOL    HW187779   9.321   8.993   5.234
27995SOL    HW287780   9.390   8.988   5.382
27996SOL     OW87781   7.798   8.346   5.528
27996SOL    HW187782   7.874   8.390   5.576
27996SOL    HW287783   7.833   8.299   5.446
27997SOL     OW87784   8.751   8.286   3.766
27997SOL    HW187785   8.785   8.193   3.781
27997SOL    HW287786   8.769   8.313   3.671
27998SOL     OW87787   8.516   8.781   4.573
27998SOL    HW187788   8.523   8.697   4.518
27998SOL    HW287789   8.578   8.850   4.537
27999SOL     OW87790   7.767   8.258   4.673
27999SOL    HW187791   7.860   8.294   4.678
27999SOL    HW287792   7.761   8.173   4.725
28000SOL     OW87793   7.787   7.957   4.730
28000SOL    HW187794   7.735   7.874   4.713
28000SOL    HW287795   7.864   7.962   4.666
28001SOL     OW87796   8.586   7.828   5.402
28001SOL    HW187797   8.541   7.891   5.466
28001SOL    HW287798   8.679   7.859   5.385
28002SOL     OW87799   8.608   7.655   5.201
28002SOL    HW187800   8.608   7.719   5.278
28002SOL    HW287801   8.636   7.703   5.118
28003SOL     OW87802   7.456   8.774   3.924
28003SOL    HW187803   7.363   8.795   3.893
28003SOL    HW287804   7.466   8.675   3.937
28004SOL     OW87805   7.536   9.249   4.651
28004SOL    HW187806   7.494   9.163   4.624
28004SOL    HW287807   7.630   9.252   4.617
28005SOL     OW87808   7.952   9.016   4.634
28005SOL    HW187809   8.018   9.090   4.643
28005SOL    HW287810   7.996   8.937   4.592
28006SOL     OW87811   8.450   8.244   4.962
28006SOL    HW187812   8.491   8.212   5.048
28006SOL    HW287813   8.354   8.217   4.959
28007SOL     OW87814   7.488   7.992   4.838
28007SOL    HW187815   7.573   7.959   4.797
28007SOL    HW287816   7.501   8.007   4.936
28008SOL     OW87817   7.637   7.968   5.446
28008SOL    HW187818   7.696   7.928   5.376
28008SOL    HW287819   7.579   8.039   5.405
28009SOL     OW87820   8.817   8.398   5.384
28009SOL    HW187821   8.856   8.487   5.404
28009SOL    HW287822   8.827   8.378   5.287
28010SOL     OW87823   8.263   8.020   4.049
28010SOL    HW187824   8.270   7.931   4.003
28010SOL    HW287825   8.169   8.054   4.041
28011SOL     OW87826   9.105   8.052   4.930
28011SOL    HW187827   9.067   7.983   4.992
28011SOL    HW287828   9.187   8.016   4.886
28012SOL     OW87829   7.700   9.012   5.468
28012SOL    HW187830   7.670   9.069   5.544
28012SOL    HW287831   7.693   8.915   5.494
28013SOL     OW87832   8.119   7.912   4.993
28013SOL    HW187833   8.085   7.823   4.963
28013SOL    HW287834   8.145   7.966   4.913
28014SOL     OW87835   8.378   9.126   5.189
28014SOL    HW187836   8.354   9.108   5.094
28014SOL    HW287837   8.408   9.220   5.199
28015SOL     OW87838   7.921   7.948   3.915
28015SOL    HW187839   7.982   8.028   3.919
28015SOL    HW287840   7.826   7.979   3.922
28016SOL     OW87841   7.607   8.585   5.190
28016SOL    HW187842   7.629   8.524   5.266
28016SOL    HW287843   7.617   8.536   5.104
28017SOL     OW87844   8.795   8.507   4.958
28017SOL    HW187845   8.819   8.444   4.884
28017SOL    HW287846   8.705   8.547   4.940
28018SOL     OW87847   8.750   8.303   4.033
28018SOL    HW187848   8.664   8.272   4.075
28018SOL    HW287849   8.746   8.289   3.934
28019SOL     OW87850   9.207   9.195   4.878
28019SOL    HW187851   9.268   9.225   4.805
28019SOL    HW287852   9.169   9.106   4.856
28020SOL     OW87853   8.700   9.179   4.852
28020SOL    HW187854   8.784   9.184   4.798
28020SOL    HW287855   8.677   9.083   4.870
28021SOL     OW87856   7.531   8.706   4.746
28021SOL    HW187857   7.526   8.705   4.846
28021SOL    HW287858   7.448   8.665   4.708
28022SOL     OW87859   8.136   9.110   5.440
28022SOL    HW187860   8.080   9.191   5.449
28022SOL    HW287861   8.188   9.114   5.354
28023SOL     OW87862   9.174   7.583   4.247
28023SOL    HW187863   9.247   7.566   4.180
28023SOL    HW287864   9.143   7.496   4.285
28024SOL     OW87865   8.836   9.021   4.201
28024SOL    HW187866   8.903   9.033   4.127
28024SOL    HW287867   8.796   9.110   4.224
28025SOL     OW87868   7.578   9.242   5.575
28025SOL    HW187869   7.537   9.168   5.628
28025SOL    HW287870   7.642   9.293   5.633
28026SOL     OW87871   8.728   8.375   4.396
28026SOL    HW187872   8.788   8.294   4.398
28026SOL    HW287873   8.768   8.444   4.336
28027SOL     OW87874   8.278   8.721   5.146
28027SOL    HW187875   8.273   8.754   5.241
28027SOL    HW287876   8.192   8.740   5.100
28028SOL     OW87877   8.120   9.064   3.878
28028SOL    HW187878   8.129   9.074   3.779
28028SOL    HW287879   8.080   8.975   3.899
28029SOL     OW87880   9.098   9.168   5.118
28029SOL    HW187881   9.151   9.178   5.034
28029SOL    HW287882   9.071   9.258   5.152
28030SOL     OW87883   9.289   7.623   4.687
28030SOL    HW187884   9.328   7.538   4.651
28030SOL    HW287885   9.191   7.625   4.668
28031SOL     OW87886   7.711   7.774   4.444
28031SOL    HW187887   7.632   7.825   4.410
28031SOL    HW287888   7.702   7.759   4.542
28032SOL     OW87889   8.642   9.060   3.755
28032SOL    HW187890   8.648   8.967   3.792
28032SOL    HW287891   8.583   9.060   3.675
28033SOL     OW87892   8.270   8.450   5.096
28033SOL    HW187893   8.310   8.449   5.004
28033SOL    HW287894   8.280   8.542   5.136
28034SOL     OW87895   8.364   8.358   4.015
28034SOL    HW187896   8.427   8.396   3.947
28034SOL    HW287897   8.404   8.275   4.054
28035SOL     OW87898   8.952   9.055   3.768
28035SOL    HW187899   8.860   9.092   3.775
28035SOL    HW287900   8.990   9.075   3.678
28036SOL     OW87901   7.820   8.736   5.214
28036SOL    HW187902   7.807   8.829   5.180
28036SOL    HW287903   7.736   8.684   5.201
28037SOL     OW87904   9.062   8.740   5.013
28037SOL    HW187905   9.122   8.743   5.093
28037SOL    HW287906   8.987   8.804   5.026
28038SOL     OW87907   8.487   8.546   4.420
28038SOL    HW187908   8.417   8.499   4.474
28038SOL    HW287909   8.546   8.478   4.377
28039SOL     OW87910   8.462   7.684   4.695
28039SOL    HW187911   8.454   7.648   4.602
28039SOL    HW287912   8.460   7.608   4.760
28040SOL     OW87913   8.038   8.935   4.215
28040SOL    HW187914   8.080   8.877   4.145
28040SOL    HW287915   7.994   9.014   4.171
28041SOL     OW87916   9.157   7.833   5.105
28041SOL    HW187917   9.230   7.902   5.109
28041SOL    HW287918   9.185   7.758   5.046
28042SOL     OW87919   7.703   8.796   4.014
28042SOL    HW187920   7.607   8.797   3.987
28042SOL    HW287921   7.715   8.849   4.098
28043SOL     OW87922   7.553   8.461   5.450
28043SOL    HW187923   7.476   8.428   5.504
28043SOL    HW287924   7.638   8.431   5.492
28044SOL     OW87925   8.120   7.651   5.213
28044SOL    HW187926   8.210   7.635   5.173
28044SOL    HW287927   8.128   7.656   5.312
28045SOL     OW87928   7.523   7.793   3.757
28045SOL    HW187929   7.431   7.765   3.728
28045SOL    HW287930   7.554   7.870   3.701
28046SOL     OW87931   8.888   8.304   5.122
28046SOL    HW187932   8.831   8.356   5.059
28046SOL    HW287933   8.984   8.316   5.098
28047SOL     OW87934   7.520   7.614   4.042
28047SOL    HW187935   7.503   7.697   3.988
28047SOL    HW287936   7.610   7.577   4.020
28048SOL     OW87937   8.631   8.783   3.843
28048SOL    HW187938   8.532   8.772   3.845
28048SOL    HW287939   8.665   8.798   3.936
28049SOL     OW87940   8.061   8.290   5.155
28049SOL    HW187941   8.117   8.371   5.138
28049SOL    HW287942   8.120   8.210   5.158
28050SOL     OW87943   8.941   9.215   4.683
28050SOL    HW187944   8.974   9.279   4.614
28050SOL    HW287945   9.007   9.209   4.758
28051SOL     OW87946   8.164   8.013   5.432
28051SOL    HW187947   8.183   8.078   5.506
28051SOL    HW287948   8.224   7.933   5.441
28052SOL     OW87949   8.898   8.668   5.357
28052SOL    HW187950   8.889   8.658   5.456
28052SOL    HW287951   8.994   8.661   5.331
28053SOL     OW87952   7.838   9.189   5.284
28053SOL    HW187953   7.747   9.230   5.282
28053SOL    HW287954   7.831   9.095   5.316
28054SOL     OW87955   9.122   8.331   4.978
28054SOL    HW187956   9.095   8.242   4.941
28054SOL    HW287957   9.123   8.399   4.905
28055SOL     OW87958   8.042   8.193   4.376
28055SOL    HW187959   8.092   8.278   4.357
28055SOL    HW287960   7.954   8.195   4.328
28056SOL     OW87961   9.225   7.790   5.366
28056SOL    HW187962   9.208   7.821   5.272
28056SOL    HW287963   9.141   7.753   5.404
28057SOL     OW87964   9.178   8.382   5.241
28057SOL    HW187965   9.216   8.473   5.256
28057SOL    HW287966   9.170   8.365   5.142
28058SOL     OW87967   8.307   8.822   3.740
28058SOL    HW187968   8.261   8.837   3.828
28058SOL    HW287969   8.351   8.907   3.710
28059SOL     OW87970   8.109   9.238   4.677
28059SOL    HW187971   8.063   9.326   4.664
28059SOL    HW287972   8.208   9.250   4.670
28060SOL     OW87973   8.307   8.404   4.585
28060SOL    HW187974   8.361   8.335   4.633
28060SOL    HW287975   8.275   8.473   4.651
28061SOL     OW87976   8.531   8.432   3.811
28061SOL    HW187977   8.508   8.485   3.729
28061SOL    HW287978   8.612   8.376   3.792
28062SOL     OW87979   9.309   9.017   4.575
28062SOL    HW187980   9.238   9.005   4.505
28062SOL    HW287981   9.310   8.938   4.635
28063SOL     OW87982   7.669   8.762   5.568
28063SOL    HW187983   7.604   8.689   5.547
28063SOL    HW287984   7.673   8.776   5.666
28064SOL     OW87985   7.527   8.688   4.377
28064SOL    HW187986   7.526   8.641   4.465
28064SOL    HW287987   7.609   8.660   4.326
28065SOL     OW87988   8.120   8.839   5.348
28065SOL    HW187989   8.042   8.789   5.386
28065SOL    HW287990   8.117   8.934   5.379
28066SOL     OW87991   9.272   7.640   4.951
28066SOL    HW187992   9.268   7.550   4.995
28066SOL    HW287993   9.275   7.629   4.852
28067SOL     OW87994   7.876   7.872   4.244
28067SOL    HW187995   7.906   7.800   4.182
28067SOL    HW287996   7.837   7.832   4.327
28068SOL     OW87997   9.153   8.935   4.828
28068SOL    HW187998   9.060   8.910   4.801
28068SOL    HW287999   9.179   8.885   4.910
28069SOL     OW88000   7.765   7.995   5.004
28069SOL    HW188001   7.803   7.936   5.076
28069SOL    HW288002   7.805   7.969   4.916
28070SOL     OW88003   8.260   9.034   4.411
28070SOL    HW188004   8.292   9.044   4.317
28070SOL    HW288005   8.181   8.972   4.413
28071SOL     OW88006   8.872   7.662   4.836
28071SOL    HW188007   8.924   7.597   4.891
28071SOL    HW288008   8.823   7.725   4.897
28072SOL     OW88009   8.449   7.482   4.878
28072SOL    HW188010   8.386   7.410   4.847
28072SOL    HW288011   8.542   7.446   4.878
28073SOL     OW88012   8.218   8.778   4.025
28073SOL    HW188013   8.172   8.691   4.042
28073SOL    HW288014   8.309   8.775   4.066
28074SOL     OW88015   8.066   9.015   5.008
28074SOL    HW188016   8.061   9.097   5.065
28074SOL    HW288017   8.155   9.012   4.963
28075SOL     OW88018   8.800   7.500   3.892
28075SOL    HW188019   8.835   7.459   3.808
28075SOL    HW288020   8.710   7.462   3.912
28076SOL     OW88021   9.041   7.669   4.606
28076SOL    HW188022   8.957   7.668   4.660
28076SOL    HW288023   9.043   7.752   4.550
28077SOL     OW88024   7.487   8.525   4.024
28077SOL    HW188025   7.586   8.514   4.015
28077SOL    HW288026   7.447   8.439   4.056
28078SOL     OW88027   8.323   9.094   4.061
28078SOL    HW188028   8.246   9.059   4.007
28078SOL    HW288029   8.291   9.165   4.123
28079SOL     OW88030   7.678   8.076   5.699
28079SOL    HW188031   7.585   8.074   5.736
28079SOL    HW288032   7.679   8.037   5.607
28080SOL     OW88033   7.673   7.723   6.582
28080SOL    HW188034   7.708   7.706   6.674
28080SOL    HW288035   7.585   7.678   6.570
28081SOL     OW88036   7.467   7.816   6.233
28081SOL    HW188037   7.385   7.859   6.272
28081SOL    HW288038   7.439   7.743   6.170
28082SOL     OW88039   8.017   8.723   6.751
28082SOL    HW188040   7.924   8.716   6.714
28082SOL    HW288041   8.028   8.812   6.795
28083SOL     OW88042   9.003   8.959   6.289
28083SOL    HW188043   8.946   8.943   6.370
28083SOL    HW288044   8.944   8.969   6.209
28084SOL     OW88045   8.583   8.151   6.303
28084SOL    HW188046   8.640   8.229   6.278
28084SOL    HW288047   8.523   8.177   6.379
28085SOL     OW88048   9.203   8.055   5.817
28085SOL    HW188049   9.191   8.042   5.718
28085SOL    HW288050   9.173   7.974   5.866
28086SOL     OW88051   8.298   8.246   7.409
28086SOL    HW188052   8.294   8.322   7.474
28086SOL    HW288053   8.320   8.282   7.318
28087SOL     OW88054   8.133   8.460   6.251
28087SOL    HW188055   8.202   8.444   6.321
28087SOL    HW288056   8.060   8.517   6.289
28088SOL     OW88057   8.134   8.609   7.389
28088SOL    HW188058   8.194   8.688   7.403
28088SOL    HW288059   8.048   8.640   7.348
28089SOL     OW88060   7.783   8.883   6.647
28089SOL    HW188061   7.705   8.852   6.594
28089SOL    HW288062   7.841   8.941   6.590
28090SOL     OW88063   8.908   8.953   6.925
28090SOL    HW188064   8.932   9.047   6.951
28090SOL    HW288065   8.892   8.899   7.007
28091SOL     OW88066   7.886   7.840   7.085
28091SOL    HW188067   7.968   7.784   7.094
28091SOL    HW288068   7.805   7.782   7.089
28092SOL     OW88069   9.051   7.895   6.323
28092SOL    HW188070   8.977   7.941   6.273
28092SOL    HW288071   9.102   7.963   6.376
28093SOL     OW88072   7.679   9.161   6.069
28093SOL    HW188073   7.713   9.238   6.123
28093SOL    HW288074   7.723   9.161   5.979
28094SOL     OW88075   8.575   8.789   7.276
28094SOL    HW188076   8.622   8.789   7.364
28094SOL    HW288077   8.527   8.702   7.265
28095SOL     OW88078   7.678   8.882   6.124
28095SOL    HW188079   7.652   8.978   6.124
28095SOL    HW288080   7.607   8.828   6.169
28096SOL     OW88081   7.688   8.539   6.472
28096SOL    HW188082   7.702   8.455   6.524
28096SOL    HW288083   7.633   8.603   6.527
28097SOL     OW88084   8.068   9.234   7.025
28097SOL    HW188085   7.976   9.217   7.060
28097SOL    HW288086   8.096   9.326   7.051
28098SOL     OW88087   8.054   8.412   5.709
28098SOL    HW188088   8.061   8.496   5.655
28098SOL    HW288089   8.100   8.425   5.797
28099SOL     OW88090   9.042   7.562   7.066
28099SOL    HW188091   9.024   7.629   6.994
28099SOL    HW288092   9.039   7.608   7.155
28100SOL     OW88093   7.570   8.091   6.149
28100SOL    HW188094   7.525   8.003   6.166
28100SOL    HW288095   7.569   8.145   6.233
28101SOL     OW88096   7.475   9.044   5.703
28101SOL    HW188097   7.456   8.948   5.724
28101SOL    HW288098   7.442   9.102   5.778
28102SOL     OW88099   9.137   8.370   6.198
28102SOL    HW188100   9.232   8.341   6.206
28102SOL    HW288101   9.129   8.435   6.123
28103SOL     OW88102   9.089   8.556   6.018
28103SOL    HW188103   9.175   8.558   5.966
28103SOL    HW288104   9.103   8.603   6.106
28104SOL     OW88105   7.561   8.185   7.183
28104SOL    HW188106   7.649   8.172   7.228
28104SOL    HW288107   7.548   8.282   7.161
28105SOL     OW88108   8.741   8.676   7.009
28105SOL    HW188109   8.778   8.603   6.951
28105SOL    HW288110   8.793   8.681   7.094
28106SOL     OW88111   8.257   7.452   6.088
28106SOL    HW188112   8.297   7.543   6.079
28106SOL    HW288113   8.157   7.460   6.094
28107SOL     OW88114   7.645   8.424   6.850
28107SOL    HW188115   7.734   8.379   6.836
28107SOL    HW288116   7.572   8.359   6.831
28108SOL     OW88117   8.973   8.447   5.776
28108SOL    HW188118   8.910   8.371   5.789
28108SOL    HW288119   9.021   8.465   5.862
28109SOL     OW88120   7.765   7.699   7.387
28109SOL    HW188121   7.836   7.770   7.393
28109SOL    HW288122   7.677   7.738   7.415
28110SOL     OW88123   8.914   8.865   6.539
28110SOL    HW188124   8.855   8.871   6.619
28110SOL    HW288125   8.899   8.777   6.493
28111SOL     OW88126   9.115   9.162   6.158
28111SOL    HW188127   9.074   9.139   6.070
28111SOL    HW288128   9.097   9.088   6.223
28112SOL     OW88129   8.046   8.177   5.856
28112SOL    HW188130   8.070   8.246   5.788
28112SOL    HW288131   7.968   8.210   5.910
28113SOL     OW88132   8.729   7.793   6.530
28113SOL    HW188133   8.643   7.743   6.517
28113SOL    HW288134   8.791   7.739   6.586
28114SOL     OW88135   9.024   9.110   5.893
28114SOL    HW188136   9.113   9.156   5.896
28114SOL    HW288137   9.003   9.086   5.798
28115SOL     OW88138   8.842   7.917   7.260
28115SOL    HW188139   8.822   7.960   7.348
28115SOL    HW288140   8.920   7.855   7.269
28116SOL     OW88141   8.439   7.858   6.828
28116SOL    HW188142   8.362   7.892   6.882
28116SOL    HW288143   8.405   7.807   6.749
28117SOL     OW88144   8.489   8.149   6.015
28117SOL    HW188145   8.515   8.145   6.111
28117SOL    HW288146   8.404   8.098   6.001
28118SOL     OW88147   7.524   8.259   6.375
28118SOL    HW188148   7.623   8.247   6.384
28118SOL    HW288149   7.500   8.354   6.396
28119SOL     OW88150   7.578   9.269   7.157
28119SOL    HW188151   7.568   9.254   7.256
28119SOL    HW288152   7.492   9.305   7.121
28120SOL     OW88153   8.313   7.796   5.781
28120SOL    HW188154   8.372   7.859   5.732
28120SOL    HW288155   8.332   7.702   5.752
28121SOL     OW88156   9.167   8.033   7.417
28121SOL    HW188157   9.141   8.122   7.381
28121SOL    HW288158   9.165   7.965   7.344
28122SOL     OW88159   8.810   8.592   6.131
28122SOL    HW188160   8.893   8.563   6.083
28122SOL    HW288161   8.761   8.659   6.075
28123SOL     OW88162   7.998   7.644   6.471
28123SOL    HW188163   7.993   7.639   6.571
28123SOL    HW288164   8.000   7.740   6.442
28124SOL     OW88165   8.456   8.904   6.063
28124SOL    HW188166   8.410   8.976   6.011
28124SOL    HW288167   8.452   8.924   6.161
28125SOL     OW88168   7.799   9.249   6.439
28125SOL    HW188169   7.849   9.163   6.445
28125SOL    HW288170   7.864   9.326   6.436
28126SOL     OW88171   9.243   8.514   6.459
28126SOL    HW188172   9.181   8.499   6.383
28126SOL    HW288173   9.191   8.525   6.544
28127SOL     OW88174   8.675   8.998   7.092
28127SOL    HW188175   8.681   8.921   7.156
28127SOL    HW288176   8.623   8.972   7.012
28128SOL     OW88177   7.769   8.391   5.828
28128SOL    HW188178   7.851   8.430   5.786
28128SOL    HW288179   7.742   8.309   5.779
28129SOL     OW88180   8.906   8.183   6.314
28129SOL    HW188181   8.901   8.118   6.389
28129SOL    HW288182   8.986   8.242   6.327
28130SOL     OW88183   7.909   8.714   7.313
28130SOL    HW188184   7.859   8.715   7.227
28130SOL    HW288185   7.846   8.696   7.389
28131SOL     OW88186   8.559   9.224   5.823
28131SOL    HW188187   8.499   9.162   5.873
28131SOL    HW288188   8.590   9.180   5.738
28132SOL     OW88189   7.650   7.733   7.084
28132SOL    HW188190   7.570   7.793   7.071
28132SOL    HW288191   7.640   7.684   7.170
28133SOL     OW88192   9.080   8.825   5.667
28133SOL    HW188193   9.048   8.919   5.657
28133SOL    HW288194   9.004   8.762   5.655
28134SOL     OW88195   7.912   9.191   5.909
28134SOL    HW188196   7.945   9.230   5.995
28134SOL    HW288197   7.988   9.184   5.844
28135SOL     OW88198   8.848   7.555   6.012
28135SOL    HW188199   8.824   7.518   5.922
28135SOL    HW288200   8.947   7.571   6.016
28136SOL     OW88201   7.697   9.233   6.827
28136SOL    HW188202   7.754   9.168   6.877
28136SOL    HW288203   7.681   9.200   6.734
28137SOL     OW88204   7.830   8.148   6.066
28137SOL    HW188205   7.875   8.058   6.063
28137SOL    HW288206   7.736   8.137   6.099
28138SOL     OW88207   8.995   7.670   7.315
28138SOL    HW188208   8.990   7.707   7.407
28138SOL    HW288209   8.923   7.601   7.303
28139SOL     OW88210   8.062   7.570   5.703
28139SOL    HW188211   8.160   7.548   5.710
28139SOL    HW288212   8.031   7.553   5.610
28140SOL     OW88213   8.229   7.712   7.335
28140SOL    HW188214   8.296   7.651   7.378
28140SOL    HW288215   8.156   7.731   7.400
28141SOL     OW88216   8.336   8.962   6.781
28141SOL    HW188217   8.313   8.937   6.687
28141SOL    HW288218   8.397   8.893   6.820
28142SOL     OW88219   8.799   8.038   7.019
28142SOL    HW188220   8.827   7.995   7.104
28142SOL    HW288221   8.824   8.134   7.020
28143SOL     OW88222   8.251   8.850   6.510
28143SOL    HW188223   8.341   8.864   6.468
28143SOL    HW288224   8.180   8.852   6.439
28144SOL     OW88225   8.370   7.951   6.485
28144SOL    HW188226   8.345   7.942   6.389
28144SOL    HW288227   8.418   7.869   6.516
28145SOL     OW88228   7.987   7.512   6.098
28145SOL    HW188229   7.906   7.513   6.156
28145SOL    HW288230   7.990   7.595   6.043
28146SOL     OW88231   8.882   8.636   5.627
28146SOL    HW188232   8.914   8.560   5.684
28146SOL    HW288233   8.790   8.663   5.657
28147SOL     OW88234   7.745   7.483   5.757
28147SOL    HW188235   7.794   7.567   5.736
28147SOL    HW288236   7.807   7.418   5.802
28148SOL     OW88237   8.383   7.684   6.066
28148SOL    HW188238   8.335   7.725   5.988
28148SOL    HW288239   8.482   7.682   6.047
28149SOL     OW88240   8.524   8.131   7.050
28149SOL    HW188241   8.444   8.070   7.053
28149SOL    HW288242   8.605   8.078   7.026
28150SOL     OW88243   8.675   9.018   6.379
28150SOL    HW188244   8.696   9.092   6.314
28150SOL    HW288245   8.743   9.018   6.452
28151SOL     OW88246   7.907   8.600   6.327
28151SOL    HW188247   7.836   8.573   6.392
28151SOL    HW288248   7.881   8.572   6.234
28152SOL     OW88249   8.719   9.245   6.177
28152SOL    HW188250   8.763   9.309   6.113
28152SOL    HW288251   8.669   9.297   6.247
28153SOL     OW88252   8.480   7.997   5.602
28153SOL    HW188253   8.439   8.079   5.563
28153SOL    HW288254   8.544   8.023   5.675
28154SOL     OW88255   7.526   8.004   6.972
28154SOL    HW188256   7.618   8.003   6.931
28154SOL    HW288257   7.520   8.078   7.039
28155SOL     OW88258   8.009   7.670   6.733
28155SOL    HW188259   8.047   7.586   6.770
28155SOL    HW288260   7.921   7.689   6.777
28156SOL     OW88261   8.314   7.902   6.228
28156SOL    HW188262   8.282   7.974   6.166
28156SOL    HW288263   8.338   7.821   6.175
28157SOL     OW88264   8.877   8.621   6.453
28157SOL    HW188265   8.822   8.537   6.446
28157SOL    HW288266   8.903   8.650   6.361
28158SOL     OW88267   8.914   8.038   6.578
28158SOL    HW188268   8.884   7.943   6.585
28158SOL    HW288269   8.987   8.054   6.644
28159SOL     OW88270   9.305   8.281   5.963
28159SOL    HW188271   9.347   8.217   6.027
28159SOL    HW288272   9.267   8.230   5.885
28160SOL     OW88273   7.936   8.833   5.760
28160SOL    HW188274   7.849   8.818   5.807
28160SOL    HW288275   7.919   8.859   5.665
28161SOL     OW88276   9.112   8.728   6.243
28161SOL    HW188277   9.211   8.736   6.257
28161SOL    HW288278   9.067   8.812   6.274
28162SOL     OW88279   8.838   8.023   5.664
28162SOL    HW188280   8.784   8.002   5.745
28162SOL    HW288281   8.929   7.982   5.673
28163SOL     OW88282   7.975   7.704   5.914
28163SOL    HW188283   8.002   7.645   5.839
28163SOL    HW288284   7.975   7.799   5.883
28164SOL     OW88285   9.202   8.671   7.174
28164SOL    HW188286   9.293   8.632   7.161
28164SOL    HW288287   9.210   8.767   7.198
28165SOL     OW88288   8.512   8.795   6.926
28165SOL    HW188289   8.432   8.772   6.981
28165SOL    HW288290   8.595   8.769   6.975
28166SOL     OW88291   9.040   9.077   7.211
28166SOL    HW188292   9.067   9.111   7.121
28166SOL    HW288293   9.119   9.039   7.257
28167SOL     OW88294   8.559   8.643   6.686
28167SOL    HW188295   8.519   8.687   6.767
28167SOL    HW288296   8.518   8.680   6.603
28168SOL     OW88297   9.086   8.547   6.665
28168SOL    HW188298   9.091   8.628   6.724
28168SOL    HW288299   9.000   8.549   6.614
28169SOL     OW88300   8.363   7.537   6.988
28169SOL    HW188301   8.388   7.517   6.893
28169SOL    HW288302   8.435   7.593   7.030
28170SOL     OW88303   8.428   8.564   7.305
28170SOL    HW188304   8.329   8.570   7.315
28170SOL    HW288305   8.451   8.484   7.249
28171SOL     OW88306   8.153   8.498   5.954
28171SOL    HW188307   8.139   8.505   6.053
28171SOL    HW288308   8.237   8.447   5.936
28172SOL     OW88309   7.858   8.261   6.837
28172SOL    HW188310   7.944   8.273   6.887
28172SOL    HW288311   7.816   8.174   6.864
28173SOL     OW88312   8.722   7.834   6.848
28173SOL    HW188313   8.743   7.908   6.912
28173SOL    HW288314   8.633   7.851   6.805
28174SOL     OW88315   7.512   9.012   6.917
28174SOL    HW188316   7.466   9.094   6.883
28174SOL    HW288317   7.610   9.031   6.926
28175SOL     OW88318   7.815   8.548   6.087
28175SOL    HW188319   7.808   8.631   6.031
28175SOL    HW288320   7.819   8.468   6.027
28176SOL     OW88321   8.014   7.985   6.451
28176SOL    HW188322   8.026   8.051   6.377
28176SOL    HW288323   8.060   8.019   6.534
28177SOL     OW88324   8.700   8.796   5.974
28177SOL    HW188325   8.750   8.873   6.014
28177SOL    HW288326   8.605   8.798   6.006
28178SOL     OW88327   8.720   8.893   6.728
28178SOL    HW188328   8.767   8.906   6.815
28178SOL    HW288329   8.654   8.819   6.737
28179SOL     OW88330   9.030   8.087   6.058
28179SOL    HW188331   8.999   8.148   6.131
28179SOL    HW288332   9.080   8.139   5.989
28180SOL     OW88333   7.802   8.958   6.915
28180SOL    HW188334   7.781   8.914   6.828
28180SOL    HW288335   7.899   8.984   6.918
28181SOL     OW88336   7.850   8.199   7.184
28181SOL    HW188337   7.918   8.254   7.137
28181SOL    HW288338   7.890   8.111   7.211
28182SOL     OW88339   9.035   8.227   7.256
28182SOL    HW188340   8.943   8.265   7.251
28182SOL    HW288341   9.095   8.274   7.191
28183SOL     OW88342   8.461   7.553   7.356
28183SOL    HW188343   8.467   7.638   7.304
28183SOL    HW288344   8.493   7.477   7.299
28184SOL     OW88345   7.952   7.498   7.326
28184SOL    HW188346   7.910   7.441   7.256
28184SOL    HW288347   7.886   7.567   7.358
28185SOL     OW88348   8.808   8.310   6.631
28185SOL    HW188349   8.733   8.310   6.565
28185SOL    HW288350   8.845   8.218   6.640
28186SOL     OW88351   8.657   7.973   5.861
28186SOL    HW188352   8.670   7.889   5.915
28186SOL    HW288353   8.628   8.047   5.921
28187SOL     OW88354   7.755   7.661   6.817
28187SOL    HW188355   7.732   7.698   6.907
28187SOL    HW288356   7.725   7.566   6.811
28188SOL     OW88357   7.485   8.758   6.868
28188SOL    HW188358   7.538   8.709   6.936
28188SOL    HW288359   7.507   8.856   6.873
28189SOL     OW88360   9.176   8.383   7.440
28189SOL    HW188361   9.130   8.376   7.351
28189SOL    HW288362   9.114   8.427   7.506
28190SOL     OW88363   7.755   7.511   6.204
28190SOL    HW188364   7.744   7.605   6.237
28190SOL    HW288365   7.750   7.448   6.281
28191SOL     OW88366   9.070   7.815   5.960
28191SOL    HW188367   9.072   7.739   6.024
28191SOL    HW288368   9.022   7.892   6.000
28192SOL     OW88369   8.428   9.021   7.286
28192SOL    HW188370   8.408   9.065   7.198
28192SOL    HW288371   8.467   8.930   7.270
28193SOL     OW88372   9.307   8.966   7.191
28193SOL    HW188373   9.321   8.993   7.096
28193SOL    HW288374   9.390   8.988   7.244
28194SOL     OW88375   7.798   8.346   7.390
28194SOL    HW188376   7.874   8.390   7.438
28194SOL    HW288377   7.833   8.299   7.308
28195SOL     OW88378   8.988   7.722   5.711
28195SOL    HW188379   8.927   7.647   5.734
28195SOL    HW288380   9.010   7.774   5.794
28196SOL     OW88381   8.751   8.286   5.628
28196SOL    HW188382   8.785   8.193   5.643
28196SOL    HW288383   8.769   8.313   5.533
28197SOL     OW88384   8.516   8.781   6.435
28197SOL    HW188385   8.523   8.697   6.380
28197SOL    HW288386   8.578   8.850   6.399
28198SOL     OW88387   7.767   8.258   6.535
28198SOL    HW188388   7.860   8.294   6.540
28198SOL    HW288389   7.761   8.173   6.587
28199SOL     OW88390   7.787   7.957   6.592
28199SOL    HW188391   7.735   7.874   6.575
28199SOL    HW288392   7.864   7.962   6.528
28200SOL     OW88393   8.586   7.828   7.264
28200SOL    HW188394   8.541   7.891   7.328
28200SOL    HW288395   8.679   7.859   7.247
28201SOL     OW88396   8.608   7.655   7.063
28201SOL    HW188397   8.608   7.719   7.140
28201SOL    HW288398   8.636   7.703   6.980
28202SOL     OW88399   7.456   8.774   5.786
28202SOL    HW188400   7.363   8.795   5.755
28202SOL    HW288401   7.466   8.675   5.799
28203SOL     OW88402   7.536   9.249   6.513
28203SOL    HW188403   7.494   9.163   6.486
28203SOL    HW288404   7.630   9.252   6.479
28204SOL     OW88405   7.488   7.992   6.700
28204SOL    HW188406   7.573   7.959   6.659
28204SOL    HW288407   7.501   8.007   6.798
28205SOL     OW88408   7.637   7.968   7.308
28205SOL    HW188409   7.696   7.928   7.238
28205SOL    HW288410   7.579   8.039   7.267
28206SOL     OW88411   8.817   8.398   7.246
28206SOL    HW188412   8.856   8.487   7.266
28206SOL    HW288413   8.827   8.378   7.149
28207SOL     OW88414   8.263   8.020   5.911
28207SOL    HW188415   8.270   7.931   5.865
28207SOL    HW288416   8.169   8.054   5.903
28208SOL     OW88417   9.105   8.052   6.792
28208SOL    HW188418   9.067   7.983   6.854
28208SOL    HW288419   9.187   8.016   6.748
28209SOL     OW88420   7.700   9.012   7.330
28209SOL    HW188421   7.670   9.069   7.406
28209SOL    HW288422   7.693   8.915   7.356
28210SOL     OW88423   7.921   7.948   5.777
28210SOL    HW188424   7.982   8.028   5.781
28210SOL    HW288425   7.826   7.979   5.784
28211SOL     OW88426   7.607   8.585   7.052
28211SOL    HW188427   7.629   8.524   7.128
28211SOL    HW288428   7.617   8.536   6.966
28212SOL     OW88429   8.795   8.507   6.820
28212SOL    HW188430   8.819   8.444   6.746
28212SOL    HW288431   8.705   8.547   6.802
28213SOL     OW88432   8.750   8.303   5.895
28213SOL    HW188433   8.664   8.272   5.937
28213SOL    HW288434   8.746   8.289   5.796
28214SOL     OW88435   9.207   9.195   6.740
28214SOL    HW188436   9.268   9.225   6.667
28214SOL    HW288437   9.169   9.106   6.718
28215SOL     OW88438   8.700   9.179   6.714
28215SOL    HW188439   8.784   9.184   6.660
28215SOL    HW288440   8.677   9.083   6.732
28216SOL     OW88441   7.531   8.706   6.608
28216SOL    HW188442   7.526   8.705   6.708
28216SOL    HW288443   7.448   8.665   6.570
28217SOL     OW88444   8.136   9.110   7.302
28217SOL    HW188445   8.080   9.191   7.311
28217SOL    HW288446   8.188   9.114   7.216
28218SOL     OW88447   9.174   7.583   6.109
28218SOL    HW188448   9.247   7.566   6.042
28218SOL    HW288449   9.143   7.496   6.147
28219SOL     OW88450   8.836   9.021   6.063
28219SOL    HW188451   8.903   9.033   5.989
28219SOL    HW288452   8.796   9.110   6.086
28220SOL     OW88453   7.578   9.242   7.437
28220SOL    HW188454   7.537   9.168   7.490
28220SOL    HW288455   7.642   9.293   7.495
28221SOL     OW88456   8.728   8.375   6.258
28221SOL    HW188457   8.788   8.294   6.260
28221SOL    HW288458   8.768   8.444   6.198
28222SOL     OW88459   8.278   8.721   7.008
28222SOL    HW188460   8.273   8.754   7.103
28222SOL    HW288461   8.192   8.740   6.962
28223SOL     OW88462   8.120   9.064   5.740
28223SOL    HW188463   8.129   9.074   5.641
28223SOL    HW288464   8.080   8.975   5.761
28224SOL     OW88465   9.098   9.168   6.980
28224SOL    HW188466   9.151   9.178   6.896
28224SOL    HW288467   9.071   9.258   7.014
28225SOL     OW88468   9.289   7.623   6.549
28225SOL    HW188469   9.328   7.538   6.513
28225SOL    HW288470   9.191   7.625   6.530
28226SOL     OW88471   7.711   7.774   6.306
28226SOL    HW188472   7.632   7.825   6.272
28226SOL    HW288473   7.702   7.759   6.404
28227SOL     OW88474   8.642   9.060   5.617
28227SOL    HW188475   8.648   8.967   5.654
28227SOL    HW288476   8.583   9.060   5.537
28228SOL     OW88477   8.364   8.358   5.877
28228SOL    HW188478   8.427   8.396   5.809
28228SOL    HW288479   8.404   8.275   5.916
28229SOL     OW88480   8.952   9.055   5.630
28229SOL    HW188481   8.860   9.092   5.637
28229SOL    HW288482   8.990   9.075   5.540
28230SOL     OW88483   7.820   8.736   7.076
28230SOL    HW188484   7.807   8.829   7.042
28230SOL    HW288485   7.736   8.684   7.063
28231SOL     OW88486   9.062   8.740   6.875
28231SOL    HW188487   9.122   8.743   6.955
28231SOL    HW288488   8.987   8.804   6.888
28232SOL     OW88489   8.487   8.546   6.282
28232SOL    HW188490   8.417   8.499   6.336
28232SOL    HW288491   8.546   8.478   6.239
28233SOL     OW88492   8.462   7.684   6.557
28233SOL    HW188493   8.454   7.648   6.464
28233SOL    HW288494   8.460   7.608   6.622
28234SOL     OW88495   9.157   7.833   6.967
28234SOL    HW188496   9.230   7.902   6.971
28234SOL    HW288497   9.185   7.758   6.908
28235SOL     OW88498   7.703   8.796   5.876
28235SOL    HW188499   7.607   8.797   5.849
28235SOL    HW288500   7.715   8.849   5.960
28236SOL     OW88501   7.553   8.461   7.312
28236SOL    HW188502   7.476   8.428   7.366
28236SOL    HW288503   7.638   8.431   7.354
28237SOL     OW88504   8.120   7.651   7.075
28237SOL    HW188505   8.210   7.635   7.035
28237SOL    HW288506   8.128   7.656   7.174
28238SOL     OW88507   7.523   7.793   5.619
28238SOL    HW188508   7.431   7.765   5.590
28238SOL    HW288509   7.554   7.870   5.563
28239SOL     OW88510   8.888   8.304   6.984
28239SOL    HW188511   8.831   8.356   6.921
28239SOL    HW288512   8.984   8.316   6.960
28240SOL     OW88513   7.520   7.614   5.904
28240SOL    HW188514   7.503   7.697   5.850
28240SOL    HW288515   7.610   7.577   5.882
28241SOL     OW88516   8.631   8.783   5.705
28241SOL    HW188517   8.532   8.772   5.707
28241SOL    HW288518   8.665   8.798   5.798
28242SOL     OW88519   8.061   8.290   7.017
28242SOL    HW188520   8.117   8.371   7.000
28242SOL    HW288521   8.120   8.210   7.020
28243SOL     OW88522   8.941   9.215   6.545
28243SOL    HW188523   8.974   9.279   6.476
28243SOL    HW288524   9.007   9.209   6.620
28244SOL     OW88525   8.164   8.013   7.294
28244SOL    HW188526   8.183   8.078   7.368
28244SOL    HW288527   8.224   7.933   7.303
28245SOL     OW88528   8.898   8.668   7.219
28245SOL    HW188529   8.889   8.658   7.318
28245SOL    HW288530   8.994   8.661   7.193
28246SOL     OW88531   7.838   9.189   7.146
28246SOL    HW188532   7.747   9.230   7.144
28246SOL    HW288533   7.831   9.095   7.178
28247SOL     OW88534   9.122   8.331   6.840
28247SOL    HW188535   9.095   8.242   6.803
28247SOL    HW288536   9.123   8.399   6.767
28248SOL     OW88537   8.673   7.773   6.035
28248SOL    HW188538   8.738   7.699   6.024
28248SOL    HW288539   8.693   7.823   6.119
28249SOL     OW88540   8.042   8.193   6.238
28249SOL    HW188541   8.092   8.278   6.219
28249SOL    HW288542   7.954   8.195   6.190
28250SOL     OW88543   9.225   7.790   7.228
28250SOL    HW188544   9.208   7.821   7.134
28250SOL    HW288545   9.141   7.753   7.266
28251SOL     OW88546   9.178   8.382   7.103
28251SOL    HW188547   9.216   8.473   7.118
28251SOL    HW288548   9.170   8.365   7.004
28252SOL     OW88549   8.307   8.822   5.602
28252SOL    HW188550   8.261   8.837   5.690
28252SOL    HW288551   8.351   8.907   5.572
28253SOL     OW88552   8.531   8.432   5.673
28253SOL    HW188553   8.508   8.485   5.591
28253SOL    HW288554   8.612   8.376   5.654
28254SOL     OW88555   9.309   9.017   6.437
28254SOL    HW188556   9.238   9.005   6.367
28254SOL    HW288557   9.310   8.938   6.497
28255SOL     OW88558   7.669   8.762   7.430
28255SOL    HW188559   7.604   8.689   7.409
28255SOL    HW288560   7.673   8.776   7.528
28256SOL     OW88561   7.527   8.688   6.239
28256SOL    HW188562   7.526   8.641   6.327
28256SOL    HW288563   7.609   8.660   6.188
28257SOL     OW88564   8.120   8.839   7.210
28257SOL    HW188565   8.042   8.789   7.248
28257SOL    HW288566   8.117   8.934   7.241
28258SOL     OW88567   9.272   7.640   6.813
28258SOL    HW188568   9.268   7.550   6.857
28258SOL    HW288569   9.275   7.629   6.714
28259SOL     OW88570   7.876   7.872   6.106
28259SOL    HW188571   7.906   7.800   6.044
28259SOL    HW288572   7.837   7.832   6.189
28260SOL     OW88573   9.153   8.935   6.690
28260SOL    HW188574   9.060   8.910   6.663
28260SOL    HW288575   9.179   8.885   6.772
28261SOL     OW88576   7.765   7.995   6.866
28261SOL    HW188577   7.803   7.936   6.938
28261SOL    HW288578   7.805   7.969   6.778
28262SOL     OW88579   8.872   7.662   6.698
28262SOL    HW188580   8.924   7.597   6.753
28262SOL    HW288581   8.823   7.725   6.759
28263SOL     OW88582   8.449   7.482   6.740
28263SOL    HW188583   8.386   7.410   6.709
28263SOL    HW288584   8.542   7.446   6.740
28264SOL     OW88585   8.218   8.778   5.887
28264SOL    HW188586   8.172   8.691   5.904
28264SOL    HW288587   8.309   8.775   5.928
28265SOL     OW88588   8.066   9.015   6.870
28265SOL    HW188589   8.061   9.097   6.927
28265SOL    HW288590   8.155   9.012   6.825
28266SOL     OW88591   8.748   7.901   6.277
28266SOL    HW188592   8.689   7.981   6.281
28266SOL    HW288593   8.763   7.866   6.370
28267SOL     OW88594   9.041   7.669   6.468
28267SOL    HW188595   8.957   7.668   6.522
28267SOL    HW288596   9.043   7.752   6.412
28268SOL     OW88597   7.487   8.525   5.886
28268SOL    HW188598   7.586   8.514   5.877
28268SOL    HW288599   7.447   8.439   5.918
28269SOL     OW88600   8.323   9.094   5.923
28269SOL    HW188601   8.246   9.059   5.869
28269SOL    HW288602   8.291   9.165   5.985
28270SOL     OW88603   7.678   8.076   7.561
28270SOL    HW188604   7.585   8.074   7.598
28270SOL    HW288605   7.679   8.037   7.469
28271SOL     OW88606   7.673   7.723   8.444
28271SOL    HW188607   7.708   7.706   8.536
28271SOL    HW288608   7.585   7.678   8.432
28272SOL     OW88609   7.467   7.816   8.095
28272SOL    HW188610   7.385   7.859   8.134
28272SOL    HW288611   7.439   7.743   8.032
28273SOL     OW88612   8.017   8.723   8.613
28273SOL    HW188613   7.924   8.716   8.576
28273SOL    HW288614   8.028   8.812   8.657
28274SOL     OW88615   9.003   8.959   8.151
28274SOL    HW188616   8.946   8.943   8.232
28274SOL    HW288617   8.944   8.969   8.071
28275SOL     OW88618   8.583   8.151   8.165
28275SOL    HW188619   8.640   8.229   8.140
28275SOL    HW288620   8.523   8.177   8.241
28276SOL     OW88621   9.203   8.055   7.679
28276SOL    HW188622   9.191   8.042   7.580
28276SOL    HW288623   9.173   7.974   7.728
28277SOL     OW88624   8.216   8.592   8.471
28277SOL    HW188625   8.138   8.609   8.531
28277SOL    HW288626   8.250   8.679   8.435
28278SOL     OW88627   8.298   8.246   9.271
28278SOL    HW188628   8.294   8.322   9.336
28278SOL    HW288629   8.320   8.282   9.180
28279SOL     OW88630   8.133   8.460   8.113
28279SOL    HW188631   8.202   8.444   8.183
28279SOL    HW288632   8.060   8.517   8.151
28280SOL     OW88633   8.134   8.609   9.251
28280SOL    HW188634   8.194   8.688   9.265
28280SOL    HW288635   8.048   8.640   9.210
28281SOL     OW88636   7.783   8.883   8.509
28281SOL    HW188637   7.705   8.852   8.456
28281SOL    HW288638   7.841   8.941   8.452
28282SOL     OW88639   8.908   8.953   8.787
28282SOL    HW188640   8.932   9.047   8.813
28282SOL    HW288641   8.892   8.899   8.869
28283SOL     OW88642   7.886   7.840   8.947
28283SOL    HW188643   7.968   7.784   8.956
28283SOL    HW288644   7.805   7.782   8.951
28284SOL     OW88645   9.051   7.895   8.185
28284SOL    HW188646   8.977   7.941   8.135
28284SOL    HW288647   9.102   7.963   8.238
28285SOL     OW88648   7.679   9.161   7.931
28285SOL    HW188649   7.713   9.238   7.985
28285SOL    HW288650   7.723   9.161   7.841
28286SOL     OW88651   8.575   8.789   9.138
28286SOL    HW188652   8.622   8.789   9.226
28286SOL    HW288653   8.527   8.702   9.127
28287SOL     OW88654   7.678   8.882   7.986
28287SOL    HW188655   7.652   8.978   7.986
28287SOL    HW288656   7.607   8.828   8.031
28288SOL     OW88657   7.688   8.539   8.334
28288SOL    HW188658   7.702   8.455   8.386
28288SOL    HW288659   7.633   8.603   8.389
28289SOL     OW88660   8.068   9.234   8.887
28289SOL    HW188661   7.976   9.217   8.922
28289SOL    HW288662   8.096   9.326   8.913
28290SOL     OW88663   8.054   8.412   7.571
28290SOL    HW188664   8.061   8.496   7.517
28290SOL    HW288665   8.100   8.425   7.659
28291SOL     OW88666   9.042   7.562   8.928
28291SOL    HW188667   9.024   7.629   8.856
28291SOL    HW288668   9.039   7.608   9.017
28292SOL     OW88669   7.570   8.091   8.011
28292SOL    HW188670   7.525   8.003   8.028
28292SOL    HW288671   7.569   8.145   8.095
28293SOL     OW88672   9.290   9.215   7.807
28293SOL    HW188673   9.344   9.186   7.887
28293SOL    HW288674   9.320   9.305   7.778
28294SOL     OW88675   7.475   9.044   7.565
28294SOL    HW188676   7.456   8.948   7.586
28294SOL    HW288677   7.442   9.102   7.640
28295SOL     OW88678   9.137   8.370   8.060
28295SOL    HW188679   9.232   8.341   8.068
28295SOL    HW288680   9.129   8.435   7.985
28296SOL     OW88681   9.089   8.556   7.880
28296SOL    HW188682   9.175   8.558   7.828
28296SOL    HW288683   9.103   8.603   7.968
28297SOL     OW88684   7.561   8.185   9.045
28297SOL    HW188685   7.649   8.172   9.090
28297SOL    HW288686   7.548   8.282   9.023
28298SOL     OW88687   8.061   8.813   8.174
28298SOL    HW188688   8.012   8.726   8.183
28298SOL    HW288689   8.038   8.856   8.087
28299SOL     OW88690   8.741   8.676   8.871
28299SOL    HW188691   8.778   8.603   8.813
28299SOL    HW288692   8.793   8.681   8.956
28300SOL     OW88693   8.257   7.452   7.950
28300SOL    HW188694   8.297   7.543   7.941
28300SOL    HW288695   8.157   7.460   7.956
28301SOL     OW88696   7.645   8.424   8.712
28301SOL    HW188697   7.734   8.379   8.698
28301SOL    HW288698   7.572   8.359   8.693
28302SOL     OW88699   8.973   8.447   7.638
28302SOL    HW188700   8.910   8.371   7.651
28302SOL    HW288701   9.021   8.465   7.724
28303SOL     OW88702   8.635   9.240   9.064
28303SOL    HW188703   8.659   9.300   8.988
28303SOL    HW288704   8.642   9.145   9.034
28304SOL     OW88705   7.765   7.699   9.249
28304SOL    HW188706   7.836   7.770   9.255
28304SOL    HW288707   7.677   7.738   9.277
28305SOL     OW88708   8.914   8.865   8.401
28305SOL    HW188709   8.855   8.871   8.481
28305SOL    HW288710   8.899   8.777   8.355
28306SOL     OW88711   9.115   9.162   8.020
28306SOL    HW188712   9.074   9.139   7.932
28306SOL    HW288713   9.097   9.088   8.085
28307SOL     OW88714   8.046   8.177   7.718
28307SOL    HW188715   8.070   8.246   7.650
28307SOL    HW288716   7.968   8.210   7.772
28308SOL     OW88717   8.729   7.793   8.392
28308SOL    HW188718   8.643   7.743   8.379
28308SOL    HW288719   8.791   7.739   8.448
28309SOL     OW88720   9.024   9.110   7.755
28309SOL    HW188721   9.113   9.156   7.758
28309SOL    HW288722   9.003   9.086   7.660
28310SOL     OW88723   8.255   8.053   8.913
28310SOL    HW188724   8.208   8.050   9.002
28310SOL    HW288725   8.204   7.998   8.847
28311SOL     OW88726   8.842   7.917   9.122
28311SOL    HW188727   8.822   7.960   9.210
28311SOL    HW288728   8.920   7.855   9.131
28312SOL     OW88729   8.421   8.338   9.020
28312SOL    HW188730   8.467   8.254   8.991
28312SOL    HW288731   8.365   8.372   8.945
28313SOL     OW88732   8.439   7.858   8.690
28313SOL    HW188733   8.362   7.892   8.744
28313SOL    HW288734   8.405   7.807   8.611
28314SOL     OW88735   8.489   8.149   7.877
28314SOL    HW188736   8.515   8.145   7.973
28314SOL    HW288737   8.404   8.098   7.863
28315SOL     OW88738   7.524   8.259   8.237
28315SOL    HW188739   7.623   8.247   8.246
28315SOL    HW288740   7.500   8.354   8.258
28316SOL     OW88741   7.578   9.269   9.019
28316SOL    HW188742   7.568   9.254   9.118
28316SOL    HW288743   7.492   9.305   8.983
28317SOL     OW88744   8.313   7.796   7.643
28317SOL    HW188745   8.372   7.859   7.594
28317SOL    HW288746   8.332   7.702   7.614
28318SOL     OW88747   9.167   8.033   9.279
28318SOL    HW188748   9.141   8.122   9.243
28318SOL    HW288749   9.165   7.965   9.206
28319SOL     OW88750   8.810   8.592   7.993
28319SOL    HW188751   8.893   8.563   7.945
28319SOL    HW288752   8.761   8.659   7.937
28320SOL     OW88753   7.998   7.644   8.333
28320SOL    HW188754   7.993   7.639   8.433
28320SOL    HW288755   8.000   7.740   8.304
28321SOL     OW88756   8.456   8.904   7.925
28321SOL    HW188757   8.410   8.976   7.873
28321SOL    HW288758   8.452   8.924   8.023
28322SOL     OW88759   7.799   9.249   8.301
28322SOL    HW188760   7.849   9.163   8.307
28322SOL    HW288761   7.864   9.326   8.298
28323SOL     OW88762   9.243   8.514   8.321
28323SOL    HW188763   9.181   8.499   8.245
28323SOL    HW288764   9.191   8.525   8.406
28324SOL     OW88765   8.675   8.998   8.954
28324SOL    HW188766   8.681   8.921   9.018
28324SOL    HW288767   8.623   8.972   8.874
28325SOL     OW88768   7.769   8.391   7.690
28325SOL    HW188769   7.851   8.430   7.648
28325SOL    HW288770   7.742   8.309   7.641
28326SOL     OW88771   8.906   8.183   8.176
28326SOL    HW188772   8.901   8.118   8.251
28326SOL    HW288773   8.986   8.242   8.189
28327SOL     OW88774   7.909   8.714   9.175
28327SOL    HW188775   7.859   8.715   9.089
28327SOL    HW288776   7.846   8.696   9.251
28328SOL     OW88777   8.559   9.224   7.685
28328SOL    HW188778   8.499   9.162   7.735
28328SOL    HW288779   8.590   9.180   7.600
28329SOL     OW88780   7.650   7.733   8.946
28329SOL    HW188781   7.570   7.793   8.933
28329SOL    HW288782   7.640   7.684   9.032
28330SOL     OW88783   9.080   8.825   7.529
28330SOL    HW188784   9.048   8.919   7.519
28330SOL    HW288785   9.004   8.762   7.517
28331SOL     OW88786   7.912   9.191   7.771
28331SOL    HW188787   7.945   9.230   7.857
28331SOL    HW288788   7.988   9.184   7.706
28332SOL     OW88789   8.848   7.555   7.874
28332SOL    HW188790   8.824   7.518   7.784
28332SOL    HW288791   8.947   7.571   7.878
28333SOL     OW88792   7.697   9.233   8.689
28333SOL    HW188793   7.754   9.168   8.739
28333SOL    HW288794   7.681   9.200   8.596
28334SOL     OW88795   8.388   9.146   8.352
28334SOL    HW188796   8.468   9.089   8.373
28334SOL    HW288797   8.339   9.106   8.275
28335SOL     OW88798   7.830   8.148   7.928
28335SOL    HW188799   7.875   8.058   7.925
28335SOL    HW288800   7.736   8.137   7.961
28336SOL     OW88801   8.995   7.670   9.177
28336SOL    HW188802   8.990   7.707   9.269
28336SOL    HW288803   8.923   7.601   9.165
28337SOL     OW88804   8.062   7.570   7.565
28337SOL    HW188805   8.160   7.548   7.572
28337SOL    HW288806   8.031   7.553   7.472
28338SOL     OW88807   8.229   7.712   9.197
28338SOL    HW188808   8.296   7.651   9.240
28338SOL    HW288809   8.156   7.731   9.262
28339SOL     OW88810   8.336   8.962   8.643
28339SOL    HW188811   8.313   8.937   8.549
28339SOL    HW288812   8.397   8.893   8.682
28340SOL     OW88813   8.799   8.038   8.881
28340SOL    HW188814   8.827   7.995   8.966
28340SOL    HW288815   8.824   8.134   8.882
28341SOL     OW88816   8.251   8.850   8.372
28341SOL    HW188817   8.341   8.864   8.330
28341SOL    HW288818   8.180   8.852   8.301
28342SOL     OW88819   8.370   7.951   8.347
28342SOL    HW188820   8.345   7.942   8.251
28342SOL    HW288821   8.418   7.869   8.378
28343SOL     OW88822   7.987   7.512   7.960
28343SOL    HW188823   7.906   7.513   8.018
28343SOL    HW288824   7.990   7.595   7.905
28344SOL     OW88825   8.882   8.636   7.489
28344SOL    HW188826   8.914   8.560   7.546
28344SOL    HW288827   8.790   8.663   7.519
28345SOL     OW88828   7.745   7.483   7.619
28345SOL    HW188829   7.794   7.567   7.598
28345SOL    HW288830   7.807   7.418   7.664
28346SOL     OW88831   8.383   7.684   7.928
28346SOL    HW188832   8.335   7.725   7.850
28346SOL    HW288833   8.482   7.682   7.909
28347SOL     OW88834   8.524   8.131   8.912
28347SOL    HW188835   8.444   8.070   8.915
28347SOL    HW288836   8.605   8.078   8.888
28348SOL     OW88837   8.675   9.018   8.241
28348SOL    HW188838   8.696   9.092   8.176
28348SOL    HW288839   8.743   9.018   8.314
28349SOL     OW88840   7.907   8.600   8.189
28349SOL    HW188841   7.836   8.573   8.254
28349SOL    HW288842   7.881   8.572   8.096
28350SOL     OW88843   8.719   9.245   8.039
28350SOL    HW188844   8.763   9.309   7.975
28350SOL    HW288845   8.669   9.297   8.109
28351SOL     OW88846   8.480   7.997   7.464
28351SOL    HW188847   8.439   8.079   7.425
28351SOL    HW288848   8.544   8.023   7.537
28352SOL     OW88849   7.526   8.004   8.834
28352SOL    HW188850   7.618   8.003   8.793
28352SOL    HW288851   7.520   8.078   8.901
28353SOL     OW88852   8.009   7.670   8.595
28353SOL    HW188853   8.047   7.586   8.632
28353SOL    HW288854   7.921   7.689   8.639
28354SOL     OW88855   8.314   7.902   8.090
28354SOL    HW188856   8.282   7.974   8.028
28354SOL    HW288857   8.338   7.821   8.037
28355SOL     OW88858   8.465   7.487   8.201
28355SOL    HW188859   8.393   7.492   8.132
28355SOL    HW288860   8.441   7.418   8.270
28356SOL     OW88861   8.877   8.621   8.315
28356SOL    HW188862   8.822   8.537   8.308
28356SOL    HW288863   8.903   8.650   8.223
28357SOL     OW88864   8.914   8.038   8.440
28357SOL    HW188865   8.884   7.943   8.447
28357SOL    HW288866   8.987   8.054   8.506
28358SOL     OW88867   9.305   8.281   7.825
28358SOL    HW188868   9.347   8.217   7.889
28358SOL    HW288869   9.267   8.230   7.747
28359SOL     OW88870   7.936   8.833   7.622
28359SOL    HW188871   7.849   8.818   7.669
28359SOL    HW288872   7.919   8.859   7.527
28360SOL     OW88873   9.112   8.728   8.105
28360SOL    HW188874   9.211   8.736   8.119
28360SOL    HW288875   9.067   8.812   8.136
28361SOL     OW88876   8.838   8.023   7.526
28361SOL    HW188877   8.784   8.002   7.607
28361SOL    HW288878   8.929   7.982   7.535
28362SOL     OW88879   7.975   7.704   7.776
28362SOL    HW188880   8.002   7.645   7.701
28362SOL    HW288881   7.975   7.799   7.745
28363SOL     OW88882   9.202   8.671   9.036
28363SOL    HW188883   9.293   8.632   9.023
28363SOL    HW288884   9.210   8.767   9.060
28364SOL     OW88885   8.512   8.795   8.788
28364SOL    HW188886   8.432   8.772   8.843
28364SOL    HW288887   8.595   8.769   8.837
28365SOL     OW88888   9.040   9.077   9.073
28365SOL    HW188889   9.067   9.111   8.983
28365SOL    HW288890   9.119   9.039   9.119
28366SOL     OW88891   8.559   8.643   8.548
28366SOL    HW188892   8.519   8.687   8.629
28366SOL    HW288893   8.518   8.680   8.465
28367SOL     OW88894   9.086   8.547   8.527
28367SOL    HW188895   9.091   8.628   8.586
28367SOL    HW288896   9.000   8.549   8.476
28368SOL     OW88897   8.363   7.537   8.850
28368SOL    HW188898   8.388   7.517   8.755
28368SOL    HW288899   8.435   7.593   8.892
28369SOL     OW88900   8.428   8.564   9.167
28369SOL    HW188901   8.329   8.570   9.177
28369SOL    HW288902   8.451   8.484   9.111
28370SOL     OW88903   8.153   8.498   7.816
28370SOL    HW188904   8.139   8.505   7.915
28370SOL    HW288905   8.237   8.447   7.798
28371SOL     OW88906   7.858   8.261   8.699
28371SOL    HW188907   7.944   8.273   8.749
28371SOL    HW288908   7.816   8.174   8.726
28372SOL     OW88909   8.722   7.834   8.710
28372SOL    HW188910   8.743   7.908   8.774
28372SOL    HW288911   8.633   7.851   8.667
28373SOL     OW88912   7.512   9.012   8.779
28373SOL    HW188913   7.466   9.094   8.745
28373SOL    HW288914   7.610   9.031   8.788
28374SOL     OW88915   7.815   8.548   7.949
28374SOL    HW188916   7.808   8.631   7.893
28374SOL    HW288917   7.819   8.468   7.889
28375SOL     OW88918   8.014   7.985   8.313
28375SOL    HW188919   8.026   8.051   8.239
28375SOL    HW288920   8.060   8.019   8.396
28376SOL     OW88921   8.700   8.796   7.836
28376SOL    HW188922   8.750   8.873   7.876
28376SOL    HW288923   8.605   8.798   7.868
28377SOL     OW88924   8.720   8.893   8.590
28377SOL    HW188925   8.767   8.906   8.677
28377SOL    HW288926   8.654   8.819   8.599
28378SOL     OW88927   9.030   8.087   7.920
28378SOL    HW188928   8.999   8.148   7.993
28378SOL    HW288929   9.080   8.139   7.851
28379SOL     OW88930   7.802   8.958   8.777
28379SOL    HW188931   7.781   8.914   8.690
28379SOL    HW288932   7.899   8.984   8.780
28380SOL     OW88933   7.850   8.199   9.046
28380SOL    HW188934   7.918   8.254   8.999
28380SOL    HW288935   7.890   8.111   9.073
28381SOL     OW88936   9.035   8.227   9.118
28381SOL    HW188937   8.943   8.265   9.113
28381SOL    HW288938   9.095   8.274   9.053
28382SOL     OW88939   8.461   7.553   9.218
28382SOL    HW188940   8.467   7.638   9.166
28382SOL    HW288941   8.493   7.477   9.161
28383SOL     OW88942   7.952   7.498   9.188
28383SOL    HW188943   7.910   7.441   9.118
28383SOL    HW288944   7.886   7.567   9.220
28384SOL     OW88945   8.021   8.318   8.477
28384SOL    HW188946   8.065   8.407   8.468
28384SOL    HW288947   7.958   8.318   8.554
28385SOL     OW88948   8.808   8.310   8.493
28385SOL    HW188949   8.733   8.310   8.427
28385SOL    HW288950   8.845   8.218   8.502
28386SOL     OW88951   8.657   7.973   7.723
28386SOL    HW188952   8.670   7.889   7.777
28386SOL    HW288953   8.628   8.047   7.783
28387SOL     OW88954   7.755   7.661   8.679
28387SOL    HW188955   7.732   7.698   8.769
28387SOL    HW288956   7.725   7.566   8.673
28388SOL     OW88957   7.485   8.758   8.730
28388SOL    HW188958   7.538   8.709   8.798
28388SOL    HW288959   7.507   8.856   8.735
28389SOL     OW88960   8.180   8.082   8.512
28389SOL    HW188961   8.239   8.056   8.436
28389SOL    HW288962   8.152   8.178   8.501
28390SOL     OW88963   9.176   8.383   9.302
28390SOL    HW188964   9.130   8.376   9.213
28390SOL    HW288965   9.114   8.427   9.368
28391SOL     OW88966   7.755   7.511   8.066
28391SOL    HW188967   7.744   7.605   8.099
28391SOL    HW288968   7.750   7.448   8.143
28392SOL     OW88969   9.070   7.815   7.822
28392SOL    HW188970   9.072   7.739   7.886
28392SOL    HW288971   9.022   7.892   7.862
28393SOL     OW88972   8.471   8.214   8.414
28393SOL    HW188973   8.486   8.235   8.510
28393SOL    HW288974   8.441   8.119   8.405
28394SOL     OW88975   8.428   9.021   9.148
28394SOL    HW188976   8.408   9.065   9.060
28394SOL    HW288977   8.467   8.930   9.132
28395SOL     OW88978   9.307   8.966   9.053
28395SOL    HW188979   9.321   8.993   8.958
28395SOL    HW288980   9.390   8.988   9.106
28396SOL     OW88981   7.798   8.346   9.252
28396SOL    HW188982   7.874   8.390   9.300
28396SOL    HW288983   7.833   8.299   9.170
28397SOL     OW88984   8.988   7.722   7.573
28397SOL    HW188985   8.927   7.647   7.596
28397SOL    HW288986   9.010   7.774   7.656
28398SOL     OW88987   8.751   8.286   7.490
28398SOL    HW188988   8.785   8.193   7.505
28398SOL    HW288989   8.769   8.313   7.395
28399SOL     OW88990   8.516   8.781   8.297
28399SOL    HW188991   8.523   8.697   8.242
28399SOL    HW288992   8.578   8.850   8.261
28400SOL     OW88993   7.767   8.258   8.397
28400SOL    HW188994   7.860   8.294   8.402
28400SOL    HW288995   7.761   8.173   8.449
28401SOL     OW88996   7.787   7.957   8.454
28401SOL    HW188997   7.735   7.874   8.437
28401SOL    HW288998   7.864   7.962   8.390
28402SOL     OW88999   8.608   7.655   8.925
28402SOL    HW189000   8.608   7.719   9.002
28402SOL    HW289001   8.636   7.703   8.842
28403SOL     OW89002   7.456   8.774   7.648
28403SOL    HW189003   7.363   8.795   7.617
28403SOL    HW289004   7.466   8.675   7.661
28404SOL     OW89005   7.536   9.249   8.375
28404SOL    HW189006   7.494   9.163   8.348
28404SOL    HW289007   7.630   9.252   8.341
28405SOL     OW89008   7.952   9.016   8.358
28405SOL    HW189009   8.018   9.090   8.367
28405SOL    HW289010   7.996   8.937   8.316
28406SOL     OW89011   8.450   8.244   8.686
28406SOL    HW189012   8.491   8.212   8.772
28406SOL    HW289013   8.354   8.217   8.683
28407SOL     OW89014   7.488   7.992   8.562
28407SOL    HW189015   7.573   7.959   8.521
28407SOL    HW289016   7.501   8.007   8.660
28408SOL     OW89017   7.637   7.968   9.170
28408SOL    HW189018   7.696   7.928   9.100
28408SOL    HW289019   7.579   8.039   9.129
28409SOL     OW89020   8.817   8.398   9.108
28409SOL    HW189021   8.856   8.487   9.128
28409SOL    HW289022   8.827   8.378   9.011
28410SOL     OW89023   8.263   8.020   7.773
28410SOL    HW189024   8.270   7.931   7.727
28410SOL    HW289025   8.169   8.054   7.765
28411SOL     OW89026   9.105   8.052   8.654
28411SOL    HW189027   9.067   7.983   8.716
28411SOL    HW289028   9.187   8.016   8.610
28412SOL     OW89029   7.700   9.012   9.192
28412SOL    HW189030   7.670   9.069   9.268
28412SOL    HW289031   7.693   8.915   9.218
28413SOL     OW89032   8.119   7.912   8.717
28413SOL    HW189033   8.085   7.823   8.687
28413SOL    HW289034   8.145   7.966   8.637
28414SOL     OW89035   8.378   9.126   8.913
28414SOL    HW189036   8.354   9.108   8.818
28414SOL    HW289037   8.408   9.220   8.923
28415SOL     OW89038   7.921   7.948   7.639
28415SOL    HW189039   7.982   8.028   7.643
28415SOL    HW289040   7.826   7.979   7.646
28416SOL     OW89041   7.607   8.585   8.914
28416SOL    HW189042   7.629   8.524   8.990
28416SOL    HW289043   7.617   8.536   8.828
28417SOL     OW89044   8.795   8.507   8.682
28417SOL    HW189045   8.819   8.444   8.608
28417SOL    HW289046   8.705   8.547   8.664
28418SOL     OW89047   8.750   8.303   7.757
28418SOL    HW189048   8.664   8.272   7.799
28418SOL    HW289049   8.746   8.289   7.658
28419SOL     OW89050   9.207   9.195   8.602
28419SOL    HW189051   9.268   9.225   8.529
28419SOL    HW289052   9.169   9.106   8.580
28420SOL     OW89053   8.700   9.179   8.576
28420SOL    HW189054   8.784   9.184   8.522
28420SOL    HW289055   8.677   9.083   8.594
28421SOL     OW89056   7.531   8.706   8.470
28421SOL    HW189057   7.526   8.705   8.570
28421SOL    HW289058   7.448   8.665   8.432
28422SOL     OW89059   8.136   9.110   9.164
28422SOL    HW189060   8.080   9.191   9.173
28422SOL    HW289061   8.188   9.114   9.078
28423SOL     OW89062   9.174   7.583   7.971
28423SOL    HW189063   9.247   7.566   7.904
28423SOL    HW289064   9.143   7.496   8.009
28424SOL     OW89065   8.836   9.021   7.925
28424SOL    HW189066   8.903   9.033   7.851
28424SOL    HW289067   8.796   9.110   7.948
28425SOL     OW89068   7.578   9.242   9.299
28425SOL    HW189069   7.537   9.168   9.352
28425SOL    HW289070   7.642   9.293   9.357
28426SOL     OW89071   8.728   8.375   8.120
28426SOL    HW189072   8.788   8.294   8.122
28426SOL    HW289073   8.768   8.444   8.060
28427SOL     OW89074   8.278   8.721   8.870
28427SOL    HW189075   8.273   8.754   8.965
28427SOL    HW289076   8.192   8.740   8.824
28428SOL     OW89077   8.120   9.064   7.602
28428SOL    HW189078   8.129   9.074   7.503
28428SOL    HW289079   8.080   8.975   7.623
28429SOL     OW89080   9.098   9.168   8.842
28429SOL    HW189081   9.151   9.178   8.758
28429SOL    HW289082   9.071   9.258   8.876
28430SOL     OW89083   9.289   7.623   8.411
28430SOL    HW189084   9.328   7.538   8.375
28430SOL    HW289085   9.191   7.625   8.392
28431SOL     OW89086   7.711   7.774   8.168
28431SOL    HW189087   7.632   7.825   8.134
28431SOL    HW289088   7.702   7.759   8.266
28432SOL     OW89089   8.642   9.060   7.479
28432SOL    HW189090   8.648   8.967   7.516
28432SOL    HW289091   8.583   9.060   7.399
28433SOL     OW89092   8.270   8.450   8.820
28433SOL    HW189093   8.310   8.449   8.728
28433SOL    HW289094   8.280   8.542   8.860
28434SOL     OW89095   8.364   8.358   7.739
28434SOL    HW189096   8.427   8.396   7.671
28434SOL    HW289097   8.404   8.275   7.778
28435SOL     OW89098   8.952   9.055   7.492
28435SOL    HW189099   8.860   9.092   7.499
28435SOL    HW289100   8.990   9.075   7.402
28436SOL     OW89101   7.820   8.736   8.938
28436SOL    HW189102   7.807   8.829   8.904
28436SOL    HW289103   7.736   8.684   8.925
28437SOL     OW89104   9.062   8.740   8.737
28437SOL    HW189105   9.122   8.743   8.817
28437SOL    HW289106   8.987   8.804   8.750
28438SOL     OW89107   8.487   8.546   8.144
28438SOL    HW189108   8.417   8.499   8.198
28438SOL    HW289109   8.546   8.478   8.101
28439SOL     OW89110   8.462   7.684   8.419
28439SOL    HW189111   8.454   7.648   8.326
28439SOL    HW289112   8.460   7.608   8.484
28440SOL     OW89113   8.038   8.935   7.939
28440SOL    HW189114   8.080   8.877   7.869
28440SOL    HW289115   7.994   9.014   7.895
28441SOL     OW89116   9.157   7.833   8.829
28441SOL    HW189117   9.230   7.902   8.833
28441SOL    HW289118   9.185   7.758   8.770
28442SOL     OW89119   7.703   8.796   7.738
28442SOL    HW189120   7.607   8.797   7.711
28442SOL    HW289121   7.715   8.849   7.822
28443SOL     OW89122   7.553   8.461   9.174
28443SOL    HW189123   7.476   8.428   9.228
28443SOL    HW289124   7.638   8.431   9.216
28444SOL     OW89125   8.120   7.651   8.937
28444SOL    HW189126   8.210   7.635   8.897
28444SOL    HW289127   8.128   7.656   9.036
28445SOL     OW89128   7.523   7.793   7.481
28445SOL    HW189129   7.431   7.765   7.452
28445SOL    HW289130   7.554   7.870   7.425
28446SOL     OW89131   8.888   8.304   8.846
28446SOL    HW189132   8.831   8.356   8.783
28446SOL    HW289133   8.984   8.316   8.822
28447SOL     OW89134   7.520   7.614   7.766
28447SOL    HW189135   7.503   7.697   7.712
28447SOL    HW289136   7.610   7.577   7.744
28448SOL     OW89137   8.631   8.783   7.567
28448SOL    HW189138   8.532   8.772   7.569
28448SOL    HW289139   8.665   8.798   7.660
28449SOL     OW89140   8.061   8.290   8.879
28449SOL    HW189141   8.117   8.371   8.862
28449SOL    HW289142   8.120   8.210   8.882
28450SOL     OW89143   8.941   9.215   8.407
28450SOL    HW189144   8.974   9.279   8.338
28450SOL    HW289145   9.007   9.209   8.482
28451SOL     OW89146   8.164   8.013   9.156
28451SOL    HW189147   8.183   8.078   9.230
28451SOL    HW289148   8.224   7.933   9.165
28452SOL     OW89149   8.898   8.668   9.081
28452SOL    HW189150   8.889   8.658   9.180
28452SOL    HW289151   8.994   8.661   9.055
28453SOL     OW89152   7.838   9.189   9.008
28453SOL    HW189153   7.747   9.230   9.006
28453SOL    HW289154   7.831   9.095   9.040
28454SOL     OW89155   9.122   8.331   8.702
28454SOL    HW189156   9.095   8.242   8.665
28454SOL    HW289157   9.123   8.399   8.629
28455SOL     OW89158   8.673   7.773   7.897
28455SOL    HW189159   8.738   7.699   7.886
28455SOL    HW289160   8.693   7.823   7.981
28456SOL     OW89161   8.042   8.193   8.100
28456SOL    HW189162   8.092   8.278   8.081
28456SOL    HW289163   7.954   8.195   8.052
28457SOL     OW89164   9.225   7.790   9.090
28457SOL    HW189165   9.208   7.821   8.996
28457SOL    HW289166   9.141   7.753   9.128
28458SOL     OW89167   9.178   8.382   8.965
28458SOL    HW189168   9.216   8.473   8.980
28458SOL    HW289169   9.170   8.365   8.866
28459SOL     OW89170   8.307   8.822   7.464
28459SOL    HW189171   8.261   8.837   7.552
28459SOL    HW289172   8.351   8.907   7.434
28460SOL     OW89173   8.109   9.238   8.401
28460SOL    HW189174   8.063   9.326   8.388
28460SOL    HW289175   8.208   9.250   8.394
28461SOL     OW89176   8.307   8.404   8.309
28461SOL    HW189177   8.361   8.335   8.357
28461SOL    HW289178   8.275   8.473   8.375
28462SOL     OW89179   8.531   8.432   7.535
28462SOL    HW189180   8.508   8.485   7.453
28462SOL    HW289181   8.612   8.376   7.516
28463SOL     OW89182   9.309   9.017   8.299
28463SOL    HW189183   9.238   9.005   8.229
28463SOL    HW289184   9.310   8.938   8.359
28464SOL     OW89185   7.669   8.762   9.292
28464SOL    HW189186   7.604   8.689   9.271
28464SOL    HW289187   7.673   8.776   9.390
28465SOL     OW89188   7.527   8.688   8.101
28465SOL    HW189189   7.526   8.641   8.189
28465SOL    HW289190   7.609   8.660   8.050
28466SOL     OW89191   8.120   8.839   9.072
28466SOL    HW189192   8.042   8.789   9.110
28466SOL    HW289193   8.117   8.934   9.103
28467SOL     OW89194   9.272   7.640   8.675
28467SOL    HW189195   9.268   7.550   8.719
28467SOL    HW289196   9.275   7.629   8.576
28468SOL     OW89197   7.876   7.872   7.968
28468SOL    HW189198   7.906   7.800   7.906
28468SOL    HW289199   7.837   7.832   8.051
28469SOL     OW89200   9.153   8.935   8.552
28469SOL    HW189201   9.060   8.910   8.525
28469SOL    HW289202   9.179   8.885   8.634
28470SOL     OW89203   7.765   7.995   8.728
28470SOL    HW189204   7.803   7.936   8.800
28470SOL    HW289205   7.805   7.969   8.640
28471SOL     OW89206   8.260   9.034   8.135
28471SOL    HW189207   8.292   9.044   8.041
28471SOL    HW289208   8.181   8.972   8.137
28472SOL     OW89209   8.872   7.662   8.560
28472SOL    HW189210   8.924   7.597   8.615
28472SOL    HW289211   8.823   7.725   8.621
28473SOL     OW89212   8.449   7.482   8.602
28473SOL    HW189213   8.386   7.410   8.571
28473SOL    HW289214   8.542   7.446   8.602
28474SOL     OW89215   8.218   8.778   7.749
28474SOL    HW189216   8.172   8.691   7.766
28474SOL    HW289217   8.309   8.775   7.790
28475SOL     OW89218   8.066   9.015   8.732
28475SOL    HW189219   8.061   9.097   8.789
28475SOL    HW289220   8.155   9.012   8.687
28476SOL     OW89221   8.800   7.500   7.616
28476SOL    HW189222   8.835   7.459   7.532
28476SOL    HW289223   8.710   7.462   7.636
28477SOL     OW89224   8.748   7.901   8.139
28477SOL    HW189225   8.689   7.981   8.143
28477SOL    HW289226   8.763   7.866   8.232
28478SOL     OW89227   9.041   7.669   8.330
28478SOL    HW189228   8.957   7.668   8.384
28478SOL    HW289229   9.043   7.752   8.274
28479SOL     OW89230   7.487   8.525   7.748
28479SOL    HW189231   7.586   8.514   7.739
28479SOL    HW289232   7.447   8.439   7.780
28480SOL     OW89233   8.323   9.094   7.785
28480SOL    HW189234   8.246   9.059   7.731
28480SOL    HW289235   8.291   9.165   7.847
28481SOL     OW89236   7.678   8.076   9.423
28481SOL    HW189237   7.585   8.074   9.460
28481SOL    HW289238   7.679   8.037   9.331
28482SOL     OW89239   9.203   8.055   9.541
28482SOL    HW189240   9.191   8.042   9.442
28482SOL    HW289241   9.173   7.974   9.590
28483SOL     OW89242   7.679   9.161   9.793
28483SOL    HW189243   7.713   9.238   9.847
28483SOL    HW289244   7.723   9.161   9.703
28484SOL     OW89245   7.678   8.882   9.848
28484SOL    HW189246   7.652   8.978   9.848
28484SOL    HW289247   7.607   8.828   9.893
28485SOL     OW89248   8.054   8.412   9.433
28485SOL    HW189249   8.061   8.496   9.379
28485SOL    HW289250   8.100   8.425   9.521
28486SOL     OW89251   7.570   8.091   9.873
28486SOL    HW189252   7.525   8.003   9.890
28486SOL    HW289253   7.569   8.145   9.957
28487SOL     OW89254   9.290   9.215   9.669
28487SOL    HW189255   9.344   9.186   9.749
28487SOL    HW289256   9.320   9.305   9.640
28488SOL     OW89257   7.475   9.044   9.427
28488SOL    HW189258   7.456   8.948   9.448
28488SOL    HW289259   7.442   9.102   9.502
28489SOL     OW89260   9.137   8.370   9.922
28489SOL    HW189261   9.232   8.341   9.930
28489SOL    HW289262   9.129   8.435   9.847
28490SOL     OW89263   9.089   8.556   9.742
28490SOL    HW189264   9.175   8.558   9.690
28490SOL    HW289265   9.103   8.603   9.830
28491SOL     OW89266   8.061   8.813  10.036
28491SOL    HW189267   8.012   8.726  10.045
28491SOL    HW289268   8.038   8.856   9.949
28492SOL     OW89269   8.257   7.452   9.812
28492SOL    HW189270   8.297   7.543   9.803
28492SOL    HW289271   8.157   7.460   9.818
28493SOL     OW89272   8.973   8.447   9.500
28493SOL    HW189273   8.910   8.371   9.513
28493SOL    HW289274   9.021   8.465   9.586
28494SOL     OW89275   8.046   8.177   9.580
28494SOL    HW189276   8.070   8.246   9.512
28494SOL    HW289277   7.968   8.210   9.634
28495SOL     OW89278   9.024   9.110   9.617
28495SOL    HW189279   9.113   9.156   9.620
28495SOL    HW289280   9.003   9.086   9.522
28496SOL     OW89281   8.489   8.149   9.739
28496SOL    HW189282   8.515   8.145   9.835
28496SOL    HW289283   8.404   8.098   9.725
28497SOL     OW89284   7.524   8.259  10.099
28497SOL    HW189285   7.623   8.247  10.108
28497SOL    HW289286   7.500   8.354  10.120
28498SOL     OW89287   8.313   7.796   9.505
28498SOL    HW189288   8.372   7.859   9.456
28498SOL    HW289289   8.332   7.702   9.476
28499SOL     OW89290   8.810   8.592   9.855
28499SOL    HW189291   8.893   8.563   9.807
28499SOL    HW289292   8.761   8.659   9.799
28500SOL     OW89293   8.456   8.904   9.787
28500SOL    HW189294   8.410   8.976   9.735
28500SOL    HW289295   8.452   8.924   9.885
28501SOL     OW89296   7.799   9.249  10.163
28501SOL    HW189297   7.849   9.163  10.169
28501SOL    HW289298   7.864   9.326  10.160
28502SOL     OW89299   7.769   8.391   9.552
28502SOL    HW189300   7.851   8.430   9.510
28502SOL    HW289301   7.742   8.309   9.503
28503SOL     OW89302   8.559   9.224   9.547
28503SOL    HW189303   8.499   9.162   9.597
28503SOL    HW289304   8.590   9.180   9.462
28504SOL     OW89305   9.080   8.825   9.391
28504SOL    HW189306   9.048   8.919   9.381
28504SOL    HW289307   9.004   8.762   9.379
28505SOL     OW89308   7.912   9.191   9.633
28505SOL    HW189309   7.945   9.230   9.719
28505SOL    HW289310   7.988   9.184   9.568
28506SOL     OW89311   8.848   7.555   9.736
28506SOL    HW189312   8.824   7.518   9.646
28506SOL    HW289313   8.947   7.571   9.740
28507SOL     OW89314   7.830   8.148   9.790
28507SOL    HW189315   7.875   8.058   9.787
28507SOL    HW289316   7.736   8.137   9.823
28508SOL     OW89317   8.062   7.570   9.427
28508SOL    HW189318   8.160   7.548   9.434
28508SOL    HW289319   8.031   7.553   9.334
28509SOL     OW89320   7.987   7.512   9.822
28509SOL    HW189321   7.906   7.513   9.880
28509SOL    HW289322   7.990   7.595   9.767
28510SOL     OW89323   8.882   8.636   9.351
28510SOL    HW189324   8.914   8.560   9.408
28510SOL    HW289325   8.790   8.663   9.381
28511SOL     OW89326   7.745   7.483   9.481
28511SOL    HW189327   7.794   7.567   9.460
28511SOL    HW289328   7.807   7.418   9.526
28512SOL     OW89329   8.383   7.684   9.790
28512SOL    HW189330   8.335   7.725   9.712
28512SOL    HW289331   8.482   7.682   9.771
28513SOL     OW89332   7.907   8.600  10.051
28513SOL    HW189333   7.836   8.573  10.116
28513SOL    HW289334   7.881   8.572   9.958
28514SOL     OW89335   8.719   9.245   9.901
28514SOL    HW189336   8.763   9.309   9.837
28514SOL    HW289337   8.669   9.297   9.971
28515SOL     OW89338   8.314   7.902   9.952
28515SOL    HW189339   8.282   7.974   9.890
28515SOL    HW289340   8.338   7.821   9.899
28516SOL     OW89341   9.305   8.281   9.687
28516SOL    HW189342   9.347   8.217   9.751
28516SOL    HW289343   9.267   8.230   9.609
28517SOL     OW89344   7.936   8.833   9.484
28517SOL    HW189345   7.849   8.818   9.531
28517SOL    HW289346   7.919   8.859   9.389
28518SOL     OW89347   7.975   7.704   9.638
28518SOL    HW189348   8.002   7.645   9.563
28518SOL    HW289349   7.975   7.799   9.607
28519SOL     OW89350   8.153   8.498   9.678
28519SOL    HW189351   8.139   8.505   9.777
28519SOL    HW289352   8.237   8.447   9.660
28520SOL     OW89353   7.815   8.548   9.811
28520SOL    HW189354   7.808   8.631   9.755
28520SOL    HW289355   7.819   8.468   9.751
28521SOL     OW89356   8.700   8.796   9.698
28521SOL    HW189357   8.750   8.873   9.738
28521SOL    HW289358   8.605   8.798   9.730
28522SOL     OW89359   9.030   8.087   9.782
28522SOL    HW189360   8.999   8.148   9.855
28522SOL    HW289361   9.080   8.139   9.713
28523SOL     OW89362   7.755   7.511   9.928
28523SOL    HW189363   7.744   7.605   9.961
28523SOL    HW289364   7.750   7.448  10.005
28524SOL     OW89365   9.070   7.815   9.684
28524SOL    HW189366   9.072   7.739   9.748
28524SOL    HW289367   9.022   7.892   9.724
28525SOL     OW89368   8.988   7.722   9.435
28525SOL    HW189369   8.927   7.647   9.458
28525SOL    HW289370   9.010   7.774   9.518
28526SOL     OW89371   8.751   8.286   9.352
28526SOL    HW189372   8.785   8.193   9.367
28526SOL    HW289373   8.769   8.313   9.257
28527SOL     OW89374   7.456   8.774   9.510
28527SOL    HW189375   7.363   8.795   9.479
28527SOL    HW289376   7.466   8.675   9.523
28528SOL     OW89377   8.263   8.020   9.635
28528SOL    HW189378   8.270   7.931   9.589
28528SOL    HW289379   8.169   8.054   9.627
28529SOL     OW89380   7.921   7.948   9.501
28529SOL    HW189381   7.982   8.028   9.505
28529SOL    HW289382   7.826   7.979   9.508
28530SOL     OW89383   9.174   7.583   9.833
28530SOL    HW189384   9.247   7.566   9.766
28530SOL    HW289385   9.143   7.496   9.871
28531SOL     OW89386   8.836   9.021   9.787
28531SOL    HW189387   8.903   9.033   9.713
28531SOL    HW289388   8.796   9.110   9.810
28532SOL     OW89389   8.120   9.064   9.464
28532SOL    HW189390   8.129   9.074   9.365
28532SOL    HW289391   8.080   8.975   9.485
28533SOL     OW89392   8.642   9.060   9.341
28533SOL    HW189393   8.648   8.967   9.378
28533SOL    HW289394   8.583   9.060   9.261
28534SOL     OW89395   8.364   8.358   9.601
28534SOL    HW189396   8.427   8.396   9.533
28534SOL    HW289397   8.404   8.275   9.640
28535SOL     OW89398   8.952   9.055   9.354
28535SOL    HW189399   8.860   9.092   9.361
28535SOL    HW289400   8.990   9.075   9.264
28536SOL     OW89401   8.038   8.935   9.801
28536SOL    HW189402   8.080   8.877   9.731
28536SOL    HW289403   7.994   9.014   9.757
28537SOL     OW89404   7.703   8.796   9.600
28537SOL    HW189405   7.607   8.797   9.573
28537SOL    HW289406   7.715   8.849   9.684
28538SOL     OW89407   7.523   7.793   9.343
28538SOL    HW189408   7.431   7.765   9.314
28538SOL    HW289409   7.554   7.870   9.287
28539SOL     OW89410   7.520   7.614   9.628
28539SOL    HW189411   7.503   7.697   9.574
28539SOL    HW289412   7.610   7.577   9.606
28540SOL     OW89413   8.631   8.783   9.429
28540SOL    HW189414   8.532   8.772   9.431
28540SOL    HW289415   8.665   8.798   9.522
28541SOL     OW89416   8.673   7.773   9.759
28541SOL    HW189417   8.738   7.699   9.748
28541SOL    HW289418   8.693   7.823   9.843
28542SOL     OW89419   8.042   8.193   9.962
28542SOL    HW189420   8.092   8.278   9.943
28542SOL    HW289421   7.954   8.195   9.914
28543SOL     OW89422   8.307   8.822   9.326
28543SOL    HW189423   8.261   8.837   9.414
28543SOL    HW289424   8.351   8.907   9.296
28544SOL     OW89425   8.531   8.432   9.397
28544SOL    HW189426   8.508   8.485   9.315
28544SOL    HW289427   8.612   8.376   9.378
28545SOL     OW89428   7.527   8.688   9.963
28545SOL    HW189429   7.526   8.641  10.051
28545SOL    HW289430   7.609   8.660   9.912
28546SOL     OW89431   7.876   7.872   9.830
28546SOL    HW189432   7.906   7.800   9.768
28546SOL    HW289433   7.837   7.832   9.913
28547SOL     OW89434   8.218   8.778   9.611
28547SOL    HW189435   8.172   8.691   9.628
28547SOL    HW289436   8.309   8.775   9.652
28548SOL     OW89437   8.800   7.500   9.478
28548SOL    HW189438   8.835   7.459   9.394
28548SOL    HW289439   8.710   7.462   9.498
28549SOL     OW89440   7.487   8.525   9.610
28549SOL    HW189441   7.586   8.514   9.601
28549SOL    HW289442   7.447   8.439   9.642
28550SOL     OW89443   8.323   9.094   9.647
28550SOL    HW189444   8.246   9.059   9.593
28550SOL    HW289445   8.291   9.165   9.709
28551SOL     OW89446   7.673   9.585   0.996
28551SOL    HW189447   7.708   9.568   1.088
28551SOL    HW289448   7.585   9.540   0.984
28552SOL     OW89449   7.467   9.678   0.647
28552SOL    HW189450   7.385   9.721   0.686
28552SOL    HW289451   7.439   9.605   0.584
28553SOL     OW89452   9.203   9.917   0.231
28553SOL    HW189453   9.191   9.904   0.132
28553SOL    HW289454   9.173   9.836   0.280
28554SOL     OW89455   7.886   9.702   1.499
28554SOL    HW189456   7.968   9.646   1.508
28554SOL    HW289457   7.805   9.644   1.503
28555SOL     OW89458   9.051   9.757   0.737
28555SOL    HW189459   8.977   9.803   0.687
28555SOL    HW289460   9.102   9.825   0.790
28556SOL     OW89461   9.042   9.424   1.480
28556SOL    HW189462   9.024   9.491   1.408
28556SOL    HW289463   9.039   9.470   1.569
28557SOL     OW89464   7.570   9.953   0.563
28557SOL    HW189465   7.525   9.865   0.580
28557SOL    HW289466   7.569  10.007   0.647
28558SOL     OW89467   8.729   9.655   0.944
28558SOL    HW189468   8.643   9.605   0.931
28558SOL    HW289469   8.791   9.601   1.000
28559SOL     OW89470   8.255   9.915   1.465
28559SOL    HW189471   8.208   9.912   1.554
28559SOL    HW289472   8.204   9.860   1.399
28560SOL     OW89473   8.842   9.779   1.674
28560SOL    HW189474   8.822   9.822   1.762
28560SOL    HW289475   8.920   9.717   1.683
28561SOL     OW89476   8.439   9.720   1.242
28561SOL    HW189477   8.362   9.754   1.296
28561SOL    HW289478   8.405   9.669   1.163
28562SOL     OW89479   8.489  10.011   0.429
28562SOL    HW189480   8.515  10.007   0.525
28562SOL    HW289481   8.404   9.960   0.415
28563SOL     OW89482   8.313   9.658   0.195
28563SOL    HW189483   8.372   9.721   0.146
28563SOL    HW289484   8.332   9.564   0.166
28564SOL     OW89485   9.167   9.895   1.831
28564SOL    HW189486   9.141   9.984   1.795
28564SOL    HW289487   9.165   9.827   1.758
28565SOL     OW89488   7.998   9.506   0.885
28565SOL    HW189489   7.993   9.501   0.985
28565SOL    HW289490   8.000   9.602   0.856
28566SOL     OW89491   8.906  10.045   0.728
28566SOL    HW189492   8.901   9.980   0.803
28566SOL    HW289493   8.986  10.104   0.741
28567SOL     OW89494   8.848   9.417   0.426
28567SOL    HW189495   8.824   9.380   0.336
28567SOL    HW289496   8.947   9.433   0.430
28568SOL     OW89497   8.995   9.532   1.729
28568SOL    HW189498   8.990   9.569   1.821
28568SOL    HW289499   8.923   9.463   1.717
28569SOL     OW89500   8.062   9.432   0.117
28569SOL    HW189501   8.160   9.410   0.124
28569SOL    HW289502   8.031   9.415   0.024
28570SOL     OW89503   8.229   9.574   1.749
28570SOL    HW189504   8.296   9.513   1.792
28570SOL    HW289505   8.156   9.593   1.814
28571SOL     OW89506   8.799   9.900   1.433
28571SOL    HW189507   8.827   9.857   1.518
28571SOL    HW289508   8.824   9.996   1.434
28572SOL     OW89509   7.987   9.374   0.512
28572SOL    HW189510   7.906   9.375   0.570
28572SOL    HW289511   7.990   9.457   0.457
28573SOL     OW89512   8.383   9.546   0.480
28573SOL    HW189513   8.335   9.587   0.402
28573SOL    HW289514   8.482   9.544   0.461
28574SOL     OW89515   8.524   9.993   1.464
28574SOL    HW189516   8.444   9.932   1.467
28574SOL    HW289517   8.605   9.940   1.440
28575SOL     OW89518   8.009   9.532   1.147
28575SOL    HW189519   8.047   9.448   1.184
28575SOL    HW289520   7.921   9.551   1.191
28576SOL     OW89521   8.465   9.349   0.753
28576SOL    HW189522   8.393   9.354   0.684
28576SOL    HW289523   8.441   9.280   0.822
28577SOL     OW89524   8.914   9.900   0.992
28577SOL    HW189525   8.884   9.805   0.999
28577SOL    HW289526   8.987   9.916   1.058
28578SOL     OW89527   7.975   9.566   0.328
28578SOL    HW189528   8.002   9.507   0.253
28578SOL    HW289529   7.975   9.661   0.297
28579SOL     OW89530   8.363   9.399   1.402
28579SOL    HW189531   8.388   9.379   1.307
28579SOL    HW289532   8.435   9.455   1.444
28580SOL     OW89533   8.722   9.696   1.262
28580SOL    HW189534   8.743   9.770   1.326
28580SOL    HW289535   8.633   9.713   1.219
28581SOL     OW89536   8.014   9.847   0.865
28581SOL    HW189537   8.026   9.913   0.791
28581SOL    HW289538   8.060   9.881   0.948
28582SOL     OW89539   9.030   9.949   0.472
28582SOL    HW189540   8.999  10.010   0.545
28582SOL    HW289541   9.080  10.001   0.403
28583SOL     OW89542   8.461   9.415   1.770
28583SOL    HW189543   8.467   9.500   1.718
28583SOL    HW289544   8.493   9.339   1.713
28584SOL     OW89545   7.952   9.360   1.740
28584SOL    HW189546   7.910   9.303   1.670
28584SOL    HW289547   7.886   9.429   1.772
28585SOL     OW89548   8.657   9.835   0.275
28585SOL    HW189549   8.670   9.751   0.329
28585SOL    HW289550   8.628   9.909   0.335
28586SOL     OW89551   8.180   9.944   1.064
28586SOL    HW189552   8.239   9.918   0.988
28586SOL    HW289553   8.152  10.040   1.053
28587SOL     OW89554   7.755   9.373   0.618
28587SOL    HW189555   7.744   9.467   0.651
28587SOL    HW289556   7.750   9.310   0.695
28588SOL     OW89557   9.070   9.677   0.374
28588SOL    HW189558   9.072   9.601   0.438
28588SOL    HW289559   9.022   9.754   0.414
28589SOL     OW89560   8.988   9.584   0.125
28589SOL    HW189561   8.927   9.509   0.148
28589SOL    HW289562   9.010   9.636   0.208
28590SOL     OW89563   7.767  10.120   0.949
28590SOL    HW189564   7.860  10.156   0.954
28590SOL    HW289565   7.761  10.035   1.001
28591SOL     OW89566   7.787   9.819   1.006
28591SOL    HW189567   7.735   9.736   0.989
28591SOL    HW289568   7.864   9.824   0.942
28592SOL     OW89569   8.586   9.690   1.678
28592SOL    HW189570   8.541   9.753   1.742
28592SOL    HW289571   8.679   9.721   1.661
28593SOL     OW89572   8.608   9.517   1.477
28593SOL    HW189573   8.608   9.581   1.554
28593SOL    HW289574   8.636   9.565   1.394
28594SOL     OW89575   7.637   9.830   1.722
28594SOL    HW189576   7.696   9.790   1.652
28594SOL    HW289577   7.579   9.901   1.681
28595SOL     OW89578   8.263   9.882   0.325
28595SOL    HW189579   8.270   9.793   0.279
28595SOL    HW289580   8.169   9.916   0.317
28596SOL     OW89581   9.105   9.914   1.206
28596SOL    HW189582   9.067   9.845   1.268
28596SOL    HW289583   9.187   9.878   1.162
28597SOL     OW89584   8.119   9.774   1.269
28597SOL    HW189585   8.085   9.685   1.239
28597SOL    HW289586   8.145   9.828   1.189
28598SOL     OW89587   8.351   9.396   0.133
28598SOL    HW189588   8.402   9.397   0.047
28598SOL    HW289589   8.407   9.354   0.204
28599SOL     OW89590   9.174   9.445   0.523
28599SOL    HW189591   9.247   9.428   0.456
28599SOL    HW289592   9.143   9.358   0.561
28600SOL     OW89593   9.289   9.485   0.963
28600SOL    HW189594   9.328   9.400   0.927
28600SOL    HW289595   9.191   9.487   0.944
28601SOL     OW89596   7.711   9.636   0.720
28601SOL    HW189597   7.632   9.687   0.686
28601SOL    HW289598   7.702   9.621   0.818
28602SOL     OW89599   8.462   9.546   0.971
28602SOL    HW189600   8.454   9.510   0.878
28602SOL    HW289601   8.460   9.470   1.036
28603SOL     OW89602   9.157   9.695   1.381
28603SOL    HW189603   9.230   9.764   1.385
28603SOL    HW289604   9.185   9.620   1.322
28604SOL     OW89605   8.120   9.513   1.489
28604SOL    HW189606   8.210   9.497   1.449
28604SOL    HW289607   8.128   9.518   1.588
28605SOL     OW89608   7.523   9.655   0.033
28605SOL    HW189609   7.431   9.627   0.004
28605SOL    HW289610   7.554   9.732  -0.023
28606SOL     OW89611   7.520   9.476   0.318
28606SOL    HW189612   7.503   9.559   0.264
28606SOL    HW289613   7.610   9.439   0.296
28607SOL     OW89614   8.164   9.875   1.708
28607SOL    HW189615   8.183   9.940   1.782
28607SOL    HW289616   8.224   9.795   1.717
28608SOL     OW89617   8.673   9.635   0.449
28608SOL    HW189618   8.738   9.561   0.438
28608SOL    HW289619   8.693   9.685   0.533
28609SOL     OW89620   9.225   9.652   1.642
28609SOL    HW189621   9.208   9.683   1.548
28609SOL    HW289622   9.141   9.615   1.680
28610SOL     OW89623   8.531  10.294   0.087
28610SOL    HW189624   8.508  10.347   0.005
28610SOL    HW289625   8.612  10.238   0.068
28611SOL     OW89626   9.272   9.502   1.227
28611SOL    HW189627   9.268   9.412   1.271
28611SOL    HW289628   9.275   9.491   1.128
28612SOL     OW89629   7.876   9.734   0.520
28612SOL    HW189630   7.906   9.662   0.458
28612SOL    HW289631   7.837   9.694   0.603
28613SOL     OW89632   8.872   9.524   1.112
28613SOL    HW189633   8.924   9.459   1.167
28613SOL    HW289634   8.823   9.587   1.173
28614SOL     OW89635   8.449   9.344   1.154
28614SOL    HW189636   8.386   9.272   1.123
28614SOL    HW289637   8.542   9.308   1.154
28615SOL     OW89638   8.800   9.362   0.168
28615SOL    HW189639   8.835   9.321   0.084
28615SOL    HW289640   8.710   9.324   0.188
28616SOL     OW89641   8.748   9.763   0.691
28616SOL    HW189642   8.689   9.843   0.695
28616SOL    HW289643   8.763   9.728   0.784
28617SOL     OW89644   9.041   9.531   0.882
28617SOL    HW189645   8.957   9.530   0.936
28617SOL    HW289646   9.043   9.614   0.826
28618SOL     OW89647   7.673   9.585   2.858
28618SOL    HW189648   7.708   9.568   2.950
28618SOL    HW289649   7.585   9.540   2.846
28619SOL     OW89650   9.203   9.917   2.093
28619SOL    HW189651   9.191   9.904   1.994
28619SOL    HW289652   9.173   9.836   2.142
28620SOL     OW89653   7.886   9.702   3.361
28620SOL    HW189654   7.968   9.646   3.370
28620SOL    HW289655   7.805   9.644   3.365
28621SOL     OW89656   9.051   9.757   2.599
28621SOL    HW189657   8.977   9.803   2.549
28621SOL    HW289658   9.102   9.825   2.652
28622SOL     OW89659   9.042   9.424   3.342
28622SOL    HW189660   9.024   9.491   3.270
28622SOL    HW289661   9.039   9.470   3.431
28623SOL     OW89662   7.570   9.953   2.425
28623SOL    HW189663   7.525   9.865   2.442
28623SOL    HW289664   7.569  10.007   2.509
28624SOL     OW89665   7.765   9.561   3.663
28624SOL    HW189666   7.836   9.632   3.669
28624SOL    HW289667   7.677   9.600   3.691
28625SOL     OW89668   8.729   9.655   2.806
28625SOL    HW189669   8.643   9.605   2.793
28625SOL    HW289670   8.791   9.601   2.862
28626SOL     OW89671   8.255   9.915   3.327
28626SOL    HW189672   8.208   9.912   3.416
28626SOL    HW289673   8.204   9.860   3.261
28627SOL     OW89674   8.842   9.779   3.536
28627SOL    HW189675   8.822   9.822   3.624
28627SOL    HW289676   8.920   9.717   3.545
28628SOL     OW89677   8.439   9.720   3.104
28628SOL    HW189678   8.362   9.754   3.158
28628SOL    HW289679   8.405   9.669   3.025
28629SOL     OW89680   8.489  10.011   2.291
28629SOL    HW189681   8.515  10.007   2.387
28629SOL    HW289682   8.404   9.960   2.277
28630SOL     OW89683   8.313   9.658   2.057
28630SOL    HW189684   8.372   9.721   2.008
28630SOL    HW289685   8.332   9.564   2.028
28631SOL     OW89686   7.998   9.506   2.747
28631SOL    HW189687   7.993   9.501   2.847
28631SOL    HW289688   8.000   9.602   2.718
28632SOL     OW89689   8.906  10.045   2.590
28632SOL    HW189690   8.901   9.980   2.665
28632SOL    HW289691   8.986  10.104   2.603
28633SOL     OW89692   7.650   9.595   3.360
28633SOL    HW189693   7.570   9.655   3.347
28633SOL    HW289694   7.640   9.546   3.446
28634SOL     OW89695   8.848   9.417   2.288
28634SOL    HW189696   8.824   9.380   2.198
28634SOL    HW289697   8.947   9.433   2.292
28635SOL     OW89698   8.995   9.532   3.591
28635SOL    HW189699   8.990   9.569   3.683
28635SOL    HW289700   8.923   9.463   3.579
28636SOL     OW89701   8.062   9.432   1.979
28636SOL    HW189702   8.160   9.410   1.986
28636SOL    HW289703   8.031   9.415   1.886
28637SOL     OW89704   8.229   9.574   3.611
28637SOL    HW189705   8.296   9.513   3.654
28637SOL    HW289706   8.156   9.593   3.676
28638SOL     OW89707   8.799   9.900   3.295
28638SOL    HW189708   8.827   9.857   3.380
28638SOL    HW289709   8.824   9.996   3.296
28639SOL     OW89710   8.370   9.813   2.761
28639SOL    HW189711   8.345   9.804   2.665
28639SOL    HW289712   8.418   9.731   2.792
28640SOL     OW89713   7.987   9.374   2.374
28640SOL    HW189714   7.906   9.375   2.432
28640SOL    HW289715   7.990   9.457   2.319
28641SOL     OW89716   7.745   9.345   2.033
28641SOL    HW189717   7.794   9.429   2.012
28641SOL    HW289718   7.807   9.280   2.078
28642SOL     OW89719   8.383   9.546   2.342
28642SOL    HW189720   8.335   9.587   2.264
28642SOL    HW289721   8.482   9.544   2.323
28643SOL     OW89722   8.524   9.993   3.326
28643SOL    HW189723   8.444   9.932   3.329
28643SOL    HW289724   8.605   9.940   3.302
28644SOL     OW89725   8.480   9.859   1.878
28644SOL    HW189726   8.439   9.941   1.839
28644SOL    HW289727   8.544   9.885   1.951
28645SOL     OW89728   7.526   9.866   3.248
28645SOL    HW189729   7.618   9.865   3.207
28645SOL    HW289730   7.520   9.940   3.315
28646SOL     OW89731   8.009   9.532   3.009
28646SOL    HW189732   8.047   9.448   3.046
28646SOL    HW289733   7.921   9.551   3.053
28647SOL     OW89734   8.314   9.764   2.504
28647SOL    HW189735   8.282   9.836   2.442
28647SOL    HW289736   8.338   9.683   2.451
28648SOL     OW89737   8.465   9.349   2.615
28648SOL    HW189738   8.393   9.354   2.546
28648SOL    HW289739   8.441   9.280   2.684
28649SOL     OW89740   8.914   9.900   2.854
28649SOL    HW189741   8.884   9.805   2.861
28649SOL    HW289742   8.987   9.916   2.920
28650SOL     OW89743   7.975   9.566   2.190
28650SOL    HW189744   8.002   9.507   2.115
28650SOL    HW289745   7.975   9.661   2.159
28651SOL     OW89746   8.363   9.399   3.264
28651SOL    HW189747   8.388   9.379   3.169
28651SOL    HW289748   8.435   9.455   3.306
28652SOL     OW89749   8.722   9.696   3.124
28652SOL    HW189750   8.743   9.770   3.188
28652SOL    HW289751   8.633   9.713   3.081
28653SOL     OW89752   8.014   9.847   2.727
28653SOL    HW189753   8.026   9.913   2.653
28653SOL    HW289754   8.060   9.881   2.810
28654SOL     OW89755   9.030   9.949   2.334
28654SOL    HW189756   8.999  10.010   2.407
28654SOL    HW289757   9.080  10.001   2.265
28655SOL     OW89758   8.461   9.415   3.632
28655SOL    HW189759   8.467   9.500   3.580
28655SOL    HW289760   8.493   9.339   3.575
28656SOL     OW89761   7.952   9.360   3.602
28656SOL    HW189762   7.910   9.303   3.532
28656SOL    HW289763   7.886   9.429   3.634
28657SOL     OW89764   8.657   9.835   2.137
28657SOL    HW189765   8.670   9.751   2.191
28657SOL    HW289766   8.628   9.909   2.197
28658SOL     OW89767   7.755   9.523   3.093
28658SOL    HW189768   7.732   9.560   3.183
28658SOL    HW289769   7.725   9.428   3.087
28659SOL     OW89770   8.180   9.944   2.926
28659SOL    HW189771   8.239   9.918   2.850
28659SOL    HW289772   8.152  10.040   2.915
28660SOL     OW89773   7.755   9.373   2.480
28660SOL    HW189774   7.744   9.467   2.513
28660SOL    HW289775   7.750   9.310   2.557
28661SOL     OW89776   9.070   9.677   2.236
28661SOL    HW189777   9.072   9.601   2.300
28661SOL    HW289778   9.022   9.754   2.276
28662SOL     OW89779   8.988   9.584   1.987
28662SOL    HW189780   8.927   9.509   2.010
28662SOL    HW289781   9.010   9.636   2.070
28663SOL     OW89782   7.767  10.120   2.811
28663SOL    HW189783   7.860  10.156   2.816
28663SOL    HW289784   7.761  10.035   2.863
28664SOL     OW89785   7.787   9.819   2.868
28664SOL    HW189786   7.735   9.736   2.851
28664SOL    HW289787   7.864   9.824   2.804
28665SOL     OW89788   8.586   9.690   3.540
28665SOL    HW189789   8.541   9.753   3.604
28665SOL    HW289790   8.679   9.721   3.523
28666SOL     OW89791   8.608   9.517   3.339
28666SOL    HW189792   8.608   9.581   3.416
28666SOL    HW289793   8.636   9.565   3.256
28667SOL     OW89794   7.488   9.854   2.976
28667SOL    HW189795   7.573   9.821   2.935
28667SOL    HW289796   7.501   9.869   3.074
28668SOL     OW89797   7.637   9.830   3.584
28668SOL    HW189798   7.696   9.790   3.514
28668SOL    HW289799   7.579   9.901   3.543
28669SOL     OW89800   8.263   9.882   2.187
28669SOL    HW189801   8.270   9.793   2.141
28669SOL    HW289802   8.169   9.916   2.179
28670SOL     OW89803   9.105   9.914   3.068
28670SOL    HW189804   9.067   9.845   3.130
28670SOL    HW289805   9.187   9.878   3.024
28671SOL     OW89806   8.119   9.774   3.131
28671SOL    HW189807   8.085   9.685   3.101
28671SOL    HW289808   8.145   9.828   3.051
28672SOL     OW89809   9.174   9.445   2.385
28672SOL    HW189810   9.247   9.428   2.318
28672SOL    HW289811   9.143   9.358   2.423
28673SOL     OW89812   9.289   9.485   2.825
28673SOL    HW189813   9.328   9.400   2.789
28673SOL    HW289814   9.191   9.487   2.806
28674SOL     OW89815   7.711   9.636   2.582
28674SOL    HW189816   7.632   9.687   2.548
28674SOL    HW289817   7.702   9.621   2.680
28675SOL     OW89818   8.462   9.546   2.833
28675SOL    HW189819   8.454   9.510   2.740
28675SOL    HW289820   8.460   9.470   2.898
28676SOL     OW89821   9.157   9.695   3.243
28676SOL    HW189822   9.230   9.764   3.247
28676SOL    HW289823   9.185   9.620   3.184
28677SOL     OW89824   8.120   9.513   3.351
28677SOL    HW189825   8.210   9.497   3.311
28677SOL    HW289826   8.128   9.518   3.450
28678SOL     OW89827   8.164   9.875   3.570
28678SOL    HW189828   8.183   9.940   3.644
28678SOL    HW289829   8.224   9.795   3.579
28679SOL     OW89830   8.673   9.635   2.311
28679SOL    HW189831   8.738   9.561   2.300
28679SOL    HW289832   8.693   9.685   2.395
28680SOL     OW89833   9.225   9.652   3.504
28680SOL    HW189834   9.208   9.683   3.410
28680SOL    HW289835   9.141   9.615   3.542
28681SOL     OW89836   8.531  10.294   1.949
28681SOL    HW189837   8.508  10.347   1.867
28681SOL    HW289838   8.612  10.238   1.930
28682SOL     OW89839   9.272   9.502   3.089
28682SOL    HW189840   9.268   9.412   3.133
28682SOL    HW289841   9.275   9.491   2.990
28683SOL     OW89842   7.876   9.734   2.382
28683SOL    HW189843   7.906   9.662   2.320
28683SOL    HW289844   7.837   9.694   2.465
28684SOL     OW89845   7.765   9.857   3.142
28684SOL    HW189846   7.803   9.798   3.214
28684SOL    HW289847   7.805   9.831   3.054
28685SOL     OW89848   8.872   9.524   2.974
28685SOL    HW189849   8.924   9.459   3.029
28685SOL    HW289850   8.823   9.587   3.035
28686SOL     OW89851   8.449   9.344   3.016
28686SOL    HW189852   8.386   9.272   2.985
28686SOL    HW289853   8.542   9.308   3.016
28687SOL     OW89854   8.800   9.362   2.030
28687SOL    HW189855   8.835   9.321   1.946
28687SOL    HW289856   8.710   9.324   2.050
28688SOL     OW89857   8.748   9.763   2.553
28688SOL    HW189858   8.689   9.843   2.557
28688SOL    HW289859   8.763   9.728   2.646
28689SOL     OW89860   9.041   9.531   2.744
28689SOL    HW189861   8.957   9.530   2.798
28689SOL    HW289862   9.043   9.614   2.688
28690SOL     OW89863   7.673   9.585   4.720
28690SOL    HW189864   7.708   9.568   4.812
28690SOL    HW289865   7.585   9.540   4.708
28691SOL     OW89866   7.467   9.678   4.371
28691SOL    HW189867   7.385   9.721   4.410
28691SOL    HW289868   7.439   9.605   4.308
28692SOL     OW89869   7.886   9.702   5.223
28692SOL    HW189870   7.968   9.646   5.232
28692SOL    HW289871   7.805   9.644   5.227
28693SOL     OW89872   9.051   9.757   4.461
28693SOL    HW189873   8.977   9.803   4.411
28693SOL    HW289874   9.102   9.825   4.514
28694SOL     OW89875   9.042   9.424   5.204
28694SOL    HW189876   9.024   9.491   5.132
28694SOL    HW289877   9.039   9.470   5.293
28695SOL     OW89878   7.570   9.953   4.287
28695SOL    HW189879   7.525   9.865   4.304
28695SOL    HW289880   7.569  10.007   4.371
28696SOL     OW89881   8.257   9.314   4.226
28696SOL    HW189882   8.297   9.405   4.217
28696SOL    HW289883   8.157   9.322   4.232
28697SOL     OW89884   7.765   9.561   5.525
28697SOL    HW189885   7.836   9.632   5.531
28697SOL    HW289886   7.677   9.600   5.553
28698SOL     OW89887   8.729   9.655   4.668
28698SOL    HW189888   8.643   9.605   4.655
28698SOL    HW289889   8.791   9.601   4.724
28699SOL     OW89890   8.255   9.915   5.189
28699SOL    HW189891   8.208   9.912   5.278
28699SOL    HW289892   8.204   9.860   5.123
28700SOL     OW89893   8.439   9.720   4.966
28700SOL    HW189894   8.362   9.754   5.020
28700SOL    HW289895   8.405   9.669   4.887
28701SOL     OW89896   8.489  10.011   4.153
28701SOL    HW189897   8.515  10.007   4.249
28701SOL    HW289898   8.404   9.960   4.139
28702SOL     OW89899   8.313   9.658   3.919
28702SOL    HW189900   8.372   9.721   3.870
28702SOL    HW289901   8.332   9.564   3.890
28703SOL     OW89902   9.167   9.895   5.555
28703SOL    HW189903   9.141   9.984   5.519
28703SOL    HW289904   9.165   9.827   5.482
28704SOL     OW89905   8.906  10.045   4.452
28704SOL    HW189906   8.901   9.980   4.527
28704SOL    HW289907   8.986  10.104   4.465
28705SOL     OW89908   7.650   9.595   5.222
28705SOL    HW189909   7.570   9.655   5.209
28705SOL    HW289910   7.640   9.546   5.308
28706SOL     OW89911   8.848   9.417   4.150
28706SOL    HW189912   8.824   9.380   4.060
28706SOL    HW289913   8.947   9.433   4.154
28707SOL     OW89914   8.062   9.432   3.841
28707SOL    HW189915   8.160   9.410   3.848
28707SOL    HW289916   8.031   9.415   3.748
28708SOL     OW89917   8.229   9.574   5.473
28708SOL    HW189918   8.296   9.513   5.516
28708SOL    HW289919   8.156   9.593   5.538
28709SOL     OW89920   8.370   9.813   4.623
28709SOL    HW189921   8.345   9.804   4.527
28709SOL    HW289922   8.418   9.731   4.654
28710SOL     OW89923   7.745   9.345   3.895
28710SOL    HW189924   7.794   9.429   3.874
28710SOL    HW289925   7.807   9.280   3.940
28711SOL     OW89926   8.383   9.546   4.204
28711SOL    HW189927   8.335   9.587   4.126
28711SOL    HW289928   8.482   9.544   4.185
28712SOL     OW89929   8.524   9.993   5.188
28712SOL    HW189930   8.444   9.932   5.191
28712SOL    HW289931   8.605   9.940   5.164
28713SOL     OW89932   7.526   9.866   5.110
28713SOL    HW189933   7.618   9.865   5.069
28713SOL    HW289934   7.520   9.940   5.177
28714SOL     OW89935   8.009   9.532   4.871
28714SOL    HW189936   8.047   9.448   4.908
28714SOL    HW289937   7.921   9.551   4.915
28715SOL     OW89938   8.314   9.764   4.366
28715SOL    HW189939   8.282   9.836   4.304
28715SOL    HW289940   8.338   9.683   4.313
28716SOL     OW89941   8.465   9.349   4.477
28716SOL    HW189942   8.393   9.354   4.408
28716SOL    HW289943   8.441   9.280   4.546
28717SOL     OW89944   8.914   9.900   4.716
28717SOL    HW189945   8.884   9.805   4.723
28717SOL    HW289946   8.987   9.916   4.782
28718SOL     OW89947   7.975   9.566   4.052
28718SOL    HW189948   8.002   9.507   3.977
28718SOL    HW289949   7.975   9.661   4.021
28719SOL     OW89950   8.363   9.399   5.126
28719SOL    HW189951   8.388   9.379   5.031
28719SOL    HW289952   8.435   9.455   5.168
28720SOL     OW89953   8.722   9.696   4.986
28720SOL    HW189954   8.743   9.770   5.050
28720SOL    HW289955   8.633   9.713   4.943
28721SOL     OW89956   8.014   9.847   4.589
28721SOL    HW189957   8.026   9.913   4.515
28721SOL    HW289958   8.060   9.881   4.672
28722SOL     OW89959   9.030   9.949   4.196
28722SOL    HW189960   8.999  10.010   4.269
28722SOL    HW289961   9.080  10.001   4.127
28723SOL     OW89962   7.952   9.360   5.464
28723SOL    HW189963   7.910   9.303   5.394
28723SOL    HW289964   7.886   9.429   5.496
28724SOL     OW89965   8.657   9.835   3.999
28724SOL    HW189966   8.670   9.751   4.053
28724SOL    HW289967   8.628   9.909   4.059
28725SOL     OW89968   7.755   9.523   4.955
28725SOL    HW189969   7.732   9.560   5.045
28725SOL    HW289970   7.725   9.428   4.949
28726SOL     OW89971   8.180   9.944   4.788
28726SOL    HW189972   8.239   9.918   4.712
28726SOL    HW289973   8.152  10.040   4.777
28727SOL     OW89974   9.070   9.677   4.098
28727SOL    HW189975   9.072   9.601   4.162
28727SOL    HW289976   9.022   9.754   4.138
28728SOL     OW89977   8.988   9.584   3.849
28728SOL    HW189978   8.927   9.509   3.872
28728SOL    HW289979   9.010   9.636   3.932
28729SOL     OW89980   7.767  10.120   4.673
28729SOL    HW189981   7.860  10.156   4.678
28729SOL    HW289982   7.761  10.035   4.725
28730SOL     OW89983   7.787   9.819   4.730
28730SOL    HW189984   7.735   9.736   4.713
28730SOL    HW289985   7.864   9.824   4.666
28731SOL     OW89986   7.488   9.854   4.838
28731SOL    HW189987   7.573   9.821   4.797
28731SOL    HW289988   7.501   9.869   4.936
28732SOL     OW89989   7.637   9.830   5.446
28732SOL    HW189990   7.696   9.790   5.376
28732SOL    HW289991   7.579   9.901   5.405
28733SOL     OW89992   8.263   9.882   4.049
28733SOL    HW189993   8.270   9.793   4.003
28733SOL    HW289994   8.169   9.916   4.041
28734SOL     OW89995   9.105   9.914   4.930
28734SOL    HW189996   9.067   9.845   4.992
28734SOL    HW289997   9.187   9.878   4.886
28735SOL     OW89998   8.119   9.774   4.993
28735SOL    HW189999   8.085   9.685   4.963
28735SOL    HW290000   8.145   9.828   4.913
28736SOL     OW90001   9.174   9.445   4.247
28736SOL    HW190002   9.247   9.428   4.180
28736SOL    HW290003   9.143   9.358   4.285
28737SOL     OW90004   9.289   9.485   4.687
28737SOL    HW190005   9.328   9.400   4.651
28737SOL    HW290006   9.191   9.487   4.668
28738SOL     OW90007   7.711   9.636   4.444
28738SOL    HW190008   7.632   9.687   4.410
28738SOL    HW290009   7.702   9.621   4.542
28739SOL     OW90010   8.462   9.546   4.695
28739SOL    HW190011   8.454   9.510   4.602
28739SOL    HW290012   8.460   9.470   4.760
28740SOL     OW90013   9.157   9.695   5.105
28740SOL    HW190014   9.230   9.764   5.109
28740SOL    HW290015   9.185   9.620   5.046
28741SOL     OW90016   8.120   9.513   5.213
28741SOL    HW190017   8.210   9.497   5.173
28741SOL    HW290018   8.128   9.518   5.312
28742SOL     OW90019   7.523   9.655   3.757
28742SOL    HW190020   7.431   9.627   3.728
28742SOL    HW290021   7.554   9.732   3.701
28743SOL     OW90022   7.520   9.476   4.042
28743SOL    HW190023   7.503   9.559   3.988
28743SOL    HW290024   7.610   9.439   4.020
28744SOL     OW90025   8.164   9.875   5.432
28744SOL    HW190026   8.183   9.940   5.506
28744SOL    HW290027   8.224   9.795   5.441
28745SOL     OW90028   8.673   9.635   4.173
28745SOL    HW190029   8.738   9.561   4.162
28745SOL    HW290030   8.693   9.685   4.257
28746SOL     OW90031   9.225   9.652   5.366
28746SOL    HW190032   9.208   9.683   5.272
28746SOL    HW290033   9.141   9.615   5.404
28747SOL     OW90034   8.531  10.294   3.811
28747SOL    HW190035   8.508  10.347   3.729
28747SOL    HW290036   8.612  10.238   3.792
28748SOL     OW90037   9.272   9.502   4.951
28748SOL    HW190038   9.268   9.412   4.995
28748SOL    HW290039   9.275   9.491   4.852
28749SOL     OW90040   7.876   9.734   4.244
28749SOL    HW190041   7.906   9.662   4.182
28749SOL    HW290042   7.837   9.694   4.327
28750SOL     OW90043   7.765   9.857   5.004
28750SOL    HW190044   7.803   9.798   5.076
28750SOL    HW290045   7.805   9.831   4.916
28751SOL     OW90046   8.872   9.524   4.836
28751SOL    HW190047   8.924   9.459   4.891
28751SOL    HW290048   8.823   9.587   4.897
28752SOL     OW90049   8.449   9.344   4.878
28752SOL    HW190050   8.386   9.272   4.847
28752SOL    HW290051   8.542   9.308   4.878
28753SOL     OW90052   8.800   9.362   3.892
28753SOL    HW190053   8.835   9.321   3.808
28753SOL    HW290054   8.710   9.324   3.912
28754SOL     OW90055   8.748   9.763   4.415
28754SOL    HW190056   8.689   9.843   4.419
28754SOL    HW290057   8.763   9.728   4.508
28755SOL     OW90058   9.041   9.531   4.606
28755SOL    HW190059   8.957   9.530   4.660
28755SOL    HW290060   9.043   9.614   4.550
28756SOL     OW90061   7.673   9.585   6.582
28756SOL    HW190062   7.708   9.568   6.674
28756SOL    HW290063   7.585   9.540   6.570
28757SOL     OW90064   7.467   9.678   6.233
28757SOL    HW190065   7.385   9.721   6.272
28757SOL    HW290066   7.439   9.605   6.170
28758SOL     OW90067   9.203   9.917   5.817
28758SOL    HW190068   9.191   9.904   5.718
28758SOL    HW290069   9.173   9.836   5.866
28759SOL     OW90070   7.886   9.702   7.085
28759SOL    HW190071   7.968   9.646   7.094
28759SOL    HW290072   7.805   9.644   7.089
28760SOL     OW90073   9.051   9.757   6.323
28760SOL    HW190074   8.977   9.803   6.273
28760SOL    HW290075   9.102   9.825   6.376
28761SOL     OW90076   9.042   9.424   7.066
28761SOL    HW190077   9.024   9.491   6.994
28761SOL    HW290078   9.039   9.470   7.155
28762SOL     OW90079   7.570   9.953   6.149
28762SOL    HW190080   7.525   9.865   6.166
28762SOL    HW290081   7.569  10.007   6.233
28763SOL     OW90082   8.257   9.314   6.088
28763SOL    HW190083   8.297   9.405   6.079
28763SOL    HW290084   8.157   9.322   6.094
28764SOL     OW90085   7.765   9.561   7.387
28764SOL    HW190086   7.836   9.632   7.393
28764SOL    HW290087   7.677   9.600   7.415
28765SOL     OW90088   8.729   9.655   6.530
28765SOL    HW190089   8.643   9.605   6.517
28765SOL    HW290090   8.791   9.601   6.586
28766SOL     OW90091   8.255   9.915   7.051
28766SOL    HW190092   8.208   9.912   7.140
28766SOL    HW290093   8.204   9.860   6.985
28767SOL     OW90094   8.842   9.779   7.260
28767SOL    HW190095   8.822   9.822   7.348
28767SOL    HW290096   8.920   9.717   7.269
28768SOL     OW90097   8.439   9.720   6.828
28768SOL    HW190098   8.362   9.754   6.882
28768SOL    HW290099   8.405   9.669   6.749
28769SOL     OW90100   8.489  10.011   6.015
28769SOL    HW190101   8.515  10.007   6.111
28769SOL    HW290102   8.404   9.960   6.001
28770SOL     OW90103   8.313   9.658   5.781
28770SOL    HW190104   8.372   9.721   5.732
28770SOL    HW290105   8.332   9.564   5.752
28771SOL     OW90106   9.167   9.895   7.417
28771SOL    HW190107   9.141   9.984   7.381
28771SOL    HW290108   9.165   9.827   7.344
28772SOL     OW90109   7.998   9.506   6.471
28772SOL    HW190110   7.993   9.501   6.571
28772SOL    HW290111   8.000   9.602   6.442
28773SOL     OW90112   8.906  10.045   6.314
28773SOL    HW190113   8.901   9.980   6.389
28773SOL    HW290114   8.986  10.104   6.327
28774SOL     OW90115   7.650   9.595   7.084
28774SOL    HW190116   7.570   9.655   7.071
28774SOL    HW290117   7.640   9.546   7.170
28775SOL     OW90118   8.848   9.417   6.012
28775SOL    HW190119   8.824   9.380   5.922
28775SOL    HW290120   8.947   9.433   6.016
28776SOL     OW90121   8.995   9.532   7.315
28776SOL    HW190122   8.990   9.569   7.407
28776SOL    HW290123   8.923   9.463   7.303
28777SOL     OW90124   8.062   9.432   5.703
28777SOL    HW190125   8.160   9.410   5.710
28777SOL    HW290126   8.031   9.415   5.610
28778SOL     OW90127   8.799   9.900   7.019
28778SOL    HW190128   8.827   9.857   7.104
28778SOL    HW290129   8.824   9.996   7.020
28779SOL     OW90130   8.370   9.813   6.485
28779SOL    HW190131   8.345   9.804   6.389
28779SOL    HW290132   8.418   9.731   6.516
28780SOL     OW90133   7.987   9.374   6.098
28780SOL    HW190134   7.906   9.375   6.156
28780SOL    HW290135   7.990   9.457   6.043
28781SOL     OW90136   7.745   9.345   5.757
28781SOL    HW190137   7.794   9.429   5.736
28781SOL    HW290138   7.807   9.280   5.802
28782SOL     OW90139   8.383   9.546   6.066
28782SOL    HW190140   8.335   9.587   5.988
28782SOL    HW290141   8.482   9.544   6.047
28783SOL     OW90142   8.524   9.993   7.050
28783SOL    HW190143   8.444   9.932   7.053
28783SOL    HW290144   8.605   9.940   7.026
28784SOL     OW90145   8.480   9.859   5.602
28784SOL    HW190146   8.439   9.941   5.563
28784SOL    HW290147   8.544   9.885   5.675
28785SOL     OW90148   7.526   9.866   6.972
28785SOL    HW190149   7.618   9.865   6.931
28785SOL    HW290150   7.520   9.940   7.039
28786SOL     OW90151   8.009   9.532   6.733
28786SOL    HW190152   8.047   9.448   6.770
28786SOL    HW290153   7.921   9.551   6.777
28787SOL     OW90154   8.314   9.764   6.228
28787SOL    HW190155   8.282   9.836   6.166
28787SOL    HW290156   8.338   9.683   6.175
28788SOL     OW90157   8.465   9.349   6.339
28788SOL    HW190158   8.393   9.354   6.270
28788SOL    HW290159   8.441   9.280   6.408
28789SOL     OW90160   8.914   9.900   6.578
28789SOL    HW190161   8.884   9.805   6.585
28789SOL    HW290162   8.987   9.916   6.644
28790SOL     OW90163   7.975   9.566   5.914
28790SOL    HW190164   8.002   9.507   5.839
28790SOL    HW290165   7.975   9.661   5.883
28791SOL     OW90166   8.722   9.696   6.848
28791SOL    HW190167   8.743   9.770   6.912
28791SOL    HW290168   8.633   9.713   6.805
28792SOL     OW90169   8.014   9.847   6.451
28792SOL    HW190170   8.026   9.913   6.377
28792SOL    HW290171   8.060   9.881   6.534
28793SOL     OW90172   9.030   9.949   6.058
28793SOL    HW190173   8.999  10.010   6.131
28793SOL    HW290174   9.080  10.001   5.989
28794SOL     OW90175   7.952   9.360   7.326
28794SOL    HW190176   7.910   9.303   7.256
28794SOL    HW290177   7.886   9.429   7.358
28795SOL     OW90178   8.657   9.835   5.861
28795SOL    HW190179   8.670   9.751   5.915
28795SOL    HW290180   8.628   9.909   5.921
28796SOL     OW90181   7.755   9.523   6.817
28796SOL    HW190182   7.732   9.560   6.907
28796SOL    HW290183   7.725   9.428   6.811
28797SOL     OW90184   8.180   9.944   6.650
28797SOL    HW190185   8.239   9.918   6.574
28797SOL    HW290186   8.152  10.040   6.639
28798SOL     OW90187   7.755   9.373   6.204
28798SOL    HW190188   7.744   9.467   6.237
28798SOL    HW290189   7.750   9.310   6.281
28799SOL     OW90190   9.070   9.677   5.960
28799SOL    HW190191   9.072   9.601   6.024
28799SOL    HW290192   9.022   9.754   6.000
28800SOL     OW90193   8.988   9.584   5.711
28800SOL    HW190194   8.927   9.509   5.734
28800SOL    HW290195   9.010   9.636   5.794
28801SOL     OW90196   7.767  10.120   6.535
28801SOL    HW190197   7.860  10.156   6.540
28801SOL    HW290198   7.761  10.035   6.587
28802SOL     OW90199   7.787   9.819   6.592
28802SOL    HW190200   7.735   9.736   6.575
28802SOL    HW290201   7.864   9.824   6.528
28803SOL     OW90202   8.586   9.690   7.264
28803SOL    HW190203   8.541   9.753   7.328
28803SOL    HW290204   8.679   9.721   7.247
28804SOL     OW90205   8.608   9.517   7.063
28804SOL    HW190206   8.608   9.581   7.140
28804SOL    HW290207   8.636   9.565   6.980
28805SOL     OW90208   7.488   9.854   6.700
28805SOL    HW190209   7.573   9.821   6.659
28805SOL    HW290210   7.501   9.869   6.798
28806SOL     OW90211   7.637   9.830   7.308
28806SOL    HW190212   7.696   9.790   7.238
28806SOL    HW290213   7.579   9.901   7.267
28807SOL     OW90214   8.263   9.882   5.911
28807SOL    HW190215   8.270   9.793   5.865
28807SOL    HW290216   8.169   9.916   5.903
28808SOL     OW90217   9.105   9.914   6.792
28808SOL    HW190218   9.067   9.845   6.854
28808SOL    HW290219   9.187   9.878   6.748
28809SOL     OW90220   8.119   9.774   6.855
28809SOL    HW190221   8.085   9.685   6.825
28809SOL    HW290222   8.145   9.828   6.775
28810SOL     OW90223   9.174   9.445   6.109
28810SOL    HW190224   9.247   9.428   6.042
28810SOL    HW290225   9.143   9.358   6.147
28811SOL     OW90226   9.289   9.485   6.549
28811SOL    HW190227   9.328   9.400   6.513
28811SOL    HW290228   9.191   9.487   6.530
28812SOL     OW90229   7.711   9.636   6.306
28812SOL    HW190230   7.632   9.687   6.272
28812SOL    HW290231   7.702   9.621   6.404
28813SOL     OW90232   8.462   9.546   6.557
28813SOL    HW190233   8.454   9.510   6.464
28813SOL    HW290234   8.460   9.470   6.622
28814SOL     OW90235   9.157   9.695   6.967
28814SOL    HW190236   9.230   9.764   6.971
28814SOL    HW290237   9.185   9.620   6.908
28815SOL     OW90238   7.523   9.655   5.619
28815SOL    HW190239   7.431   9.627   5.590
28815SOL    HW290240   7.554   9.732   5.563
28816SOL     OW90241   7.520   9.476   5.904
28816SOL    HW190242   7.503   9.559   5.850
28816SOL    HW290243   7.610   9.439   5.882
28817SOL     OW90244   8.164   9.875   7.294
28817SOL    HW190245   8.183   9.940   7.368
28817SOL    HW290246   8.224   9.795   7.303
28818SOL     OW90247   8.673   9.635   6.035
28818SOL    HW190248   8.738   9.561   6.024
28818SOL    HW290249   8.693   9.685   6.119
28819SOL     OW90250   9.225   9.652   7.228
28819SOL    HW190251   9.208   9.683   7.134
28819SOL    HW290252   9.141   9.615   7.266
28820SOL     OW90253   8.531  10.294   5.673
28820SOL    HW190254   8.508  10.347   5.591
28820SOL    HW290255   8.612  10.238   5.654
28821SOL     OW90256   9.272   9.502   6.813
28821SOL    HW190257   9.268   9.412   6.857
28821SOL    HW290258   9.275   9.491   6.714
28822SOL     OW90259   7.876   9.734   6.106
28822SOL    HW190260   7.906   9.662   6.044
28822SOL    HW290261   7.837   9.694   6.189
28823SOL     OW90262   7.765   9.857   6.866
28823SOL    HW190263   7.803   9.798   6.938
28823SOL    HW290264   7.805   9.831   6.778
28824SOL     OW90265   8.872   9.524   6.698
28824SOL    HW190266   8.924   9.459   6.753
28824SOL    HW290267   8.823   9.587   6.759
28825SOL     OW90268   8.449   9.344   6.740
28825SOL    HW190269   8.386   9.272   6.709
28825SOL    HW290270   8.542   9.308   6.740
28826SOL     OW90271   8.800   9.362   5.754
28826SOL    HW190272   8.835   9.321   5.670
28826SOL    HW290273   8.710   9.324   5.774
28827SOL     OW90274   8.748   9.763   6.277
28827SOL    HW190275   8.689   9.843   6.281
28827SOL    HW290276   8.763   9.728   6.370
28828SOL     OW90277   9.041   9.531   6.468
28828SOL    HW190278   8.957   9.530   6.522
28828SOL    HW290279   9.043   9.614   6.412
28829SOL     OW90280   7.673   9.585   8.444
28829SOL    HW190281   7.708   9.568   8.536
28829SOL    HW290282   7.585   9.540   8.432
28830SOL     OW90283   7.467   9.678   8.095
28830SOL    HW190284   7.385   9.721   8.134
28830SOL    HW290285   7.439   9.605   8.032
28831SOL     OW90286   9.203   9.917   7.679
28831SOL    HW190287   9.191   9.904   7.580
28831SOL    HW290288   9.173   9.836   7.728
28832SOL     OW90289   7.886   9.702   8.947
28832SOL    HW190290   7.968   9.646   8.956
28832SOL    HW290291   7.805   9.644   8.951
28833SOL     OW90292   9.051   9.757   8.185
28833SOL    HW190293   8.977   9.803   8.135
28833SOL    HW290294   9.102   9.825   8.238
28834SOL     OW90295   9.042   9.424   8.928
28834SOL    HW190296   9.024   9.491   8.856
28834SOL    HW290297   9.039   9.470   9.017
28835SOL     OW90298   8.257   9.314   7.950
28835SOL    HW190299   8.297   9.405   7.941
28835SOL    HW290300   8.157   9.322   7.956
28836SOL     OW90301   7.765   9.561   9.249
28836SOL    HW190302   7.836   9.632   9.255
28836SOL    HW290303   7.677   9.600   9.277
28837SOL     OW90304   8.729   9.655   8.392
28837SOL    HW190305   8.643   9.605   8.379
28837SOL    HW290306   8.791   9.601   8.448
28838SOL     OW90307   8.255   9.915   8.913
28838SOL    HW190308   8.208   9.912   9.002
28838SOL    HW290309   8.204   9.860   8.847
28839SOL     OW90310   8.842   9.779   9.122
28839SOL    HW190311   8.822   9.822   9.210
28839SOL    HW290312   8.920   9.717   9.131
28840SOL     OW90313   8.439   9.720   8.690
28840SOL    HW190314   8.362   9.754   8.744
28840SOL    HW290315   8.405   9.669   8.611
28841SOL     OW90316   8.489  10.011   7.877
28841SOL    HW190317   8.515  10.007   7.973
28841SOL    HW290318   8.404   9.960   7.863
28842SOL     OW90319   8.313   9.658   7.643
28842SOL    HW190320   8.372   9.721   7.594
28842SOL    HW290321   8.332   9.564   7.614
28843SOL     OW90322   9.167   9.895   9.279
28843SOL    HW190323   9.141   9.984   9.243
28843SOL    HW290324   9.165   9.827   9.206
28844SOL     OW90325   7.998   9.506   8.333
28844SOL    HW190326   7.993   9.501   8.433
28844SOL    HW290327   8.000   9.602   8.304
28845SOL     OW90328   8.906  10.045   8.176
28845SOL    HW190329   8.901   9.980   8.251
28845SOL    HW290330   8.986  10.104   8.189
28846SOL     OW90331   7.650   9.595   8.946
28846SOL    HW190332   7.570   9.655   8.933
28846SOL    HW290333   7.640   9.546   9.032
28847SOL     OW90334   8.848   9.417   7.874
28847SOL    HW190335   8.824   9.380   7.784
28847SOL    HW290336   8.947   9.433   7.878
28848SOL     OW90337   8.995   9.532   9.177
28848SOL    HW190338   8.990   9.569   9.269
28848SOL    HW290339   8.923   9.463   9.165
28849SOL     OW90340   8.062   9.432   7.565
28849SOL    HW190341   8.160   9.410   7.572
28849SOL    HW290342   8.031   9.415   7.472
28850SOL     OW90343   8.229   9.574   9.197
28850SOL    HW190344   8.296   9.513   9.240
28850SOL    HW290345   8.156   9.593   9.262
28851SOL     OW90346   8.799   9.900   8.881
28851SOL    HW190347   8.827   9.857   8.966
28851SOL    HW290348   8.824   9.996   8.882
28852SOL     OW90349   8.370   9.813   8.347
28852SOL    HW190350   8.345   9.804   8.251
28852SOL    HW290351   8.418   9.731   8.378
28853SOL     OW90352   7.987   9.374   7.960
28853SOL    HW190353   7.906   9.375   8.018
28853SOL    HW290354   7.990   9.457   7.905
28854SOL     OW90355   7.745   9.345   7.619
28854SOL    HW190356   7.794   9.429   7.598
28854SOL    HW290357   7.807   9.280   7.664
28855SOL     OW90358   8.383   9.546   7.928
28855SOL    HW190359   8.335   9.587   7.850
28855SOL    HW290360   8.482   9.544   7.909
28856SOL     OW90361   8.524   9.993   8.912
28856SOL    HW190362   8.444   9.932   8.915
28856SOL    HW290363   8.605   9.940   8.888
28857SOL     OW90364   8.480   9.859   7.464
28857SOL    HW190365   8.439   9.941   7.425
28857SOL    HW290366   8.544   9.885   7.537
28858SOL     OW90367   7.526   9.866   8.834
28858SOL    HW190368   7.618   9.865   8.793
28858SOL    HW290369   7.520   9.940   8.901
28859SOL     OW90370   8.009   9.532   8.595
28859SOL    HW190371   8.047   9.448   8.632
28859SOL    HW290372   7.921   9.551   8.639
28860SOL     OW90373   8.314   9.764   8.090
28860SOL    HW190374   8.282   9.836   8.028
28860SOL    HW290375   8.338   9.683   8.037
28861SOL     OW90376   8.465   9.349   8.201
28861SOL    HW190377   8.393   9.354   8.132
28861SOL    HW290378   8.441   9.280   8.270
28862SOL     OW90379   8.914   9.900   8.440
28862SOL    HW190380   8.884   9.805   8.447
28862SOL    HW290381   8.987   9.916   8.506
28863SOL     OW90382   7.975   9.566   7.776
28863SOL    HW190383   8.002   9.507   7.701
28863SOL    HW290384   7.975   9.661   7.745
28864SOL     OW90385   8.363   9.399   8.850
28864SOL    HW190386   8.388   9.379   8.755
28864SOL    HW290387   8.435   9.455   8.892
28865SOL     OW90388   8.722   9.696   8.710
28865SOL    HW190389   8.743   9.770   8.774
28865SOL    HW290390   8.633   9.713   8.667
28866SOL     OW90391   8.014   9.847   8.313
28866SOL    HW190392   8.026   9.913   8.239
28866SOL    HW290393   8.060   9.881   8.396
28867SOL     OW90394   9.030   9.949   7.920
28867SOL    HW190395   8.999  10.010   7.993
28867SOL    HW290396   9.080  10.001   7.851
28868SOL     OW90397   8.461   9.415   9.218
28868SOL    HW190398   8.467   9.500   9.166
28868SOL    HW290399   8.493   9.339   9.161
28869SOL     OW90400   7.952   9.360   9.188
28869SOL    HW190401   7.910   9.303   9.118
28869SOL    HW290402   7.886   9.429   9.220
28870SOL     OW90403   8.657   9.835   7.723
28870SOL    HW190404   8.670   9.751   7.777
28870SOL    HW290405   8.628   9.909   7.783
28871SOL     OW90406   7.755   9.523   8.679
28871SOL    HW190407   7.732   9.560   8.769
28871SOL    HW290408   7.725   9.428   8.673
28872SOL     OW90409   8.180   9.944   8.512
28872SOL    HW190410   8.239   9.918   8.436
28872SOL    HW290411   8.152  10.040   8.501
28873SOL     OW90412   7.755   9.373   8.066
28873SOL    HW190413   7.744   9.467   8.099
28873SOL    HW290414   7.750   9.310   8.143
28874SOL     OW90415   9.070   9.677   7.822
28874SOL    HW190416   9.072   9.601   7.886
28874SOL    HW290417   9.022   9.754   7.862
28875SOL     OW90418   8.988   9.584   7.573
28875SOL    HW190419   8.927   9.509   7.596
28875SOL    HW290420   9.010   9.636   7.656
28876SOL     OW90421   7.767  10.120   8.397
28876SOL    HW190422   7.860  10.156   8.402
28876SOL    HW290423   7.761  10.035   8.449
28877SOL     OW90424   7.787   9.819   8.454
28877SOL    HW190425   7.735   9.736   8.437
28877SOL    HW290426   7.864   9.824   8.390
28878SOL     OW90427   8.586   9.690   9.126
28878SOL    HW190428   8.541   9.753   9.190
28878SOL    HW290429   8.679   9.721   9.109
28879SOL     OW90430   8.608   9.517   8.925
28879SOL    HW190431   8.608   9.581   9.002
28879SOL    HW290432   8.636   9.565   8.842
28880SOL     OW90433   7.488   9.854   8.562
28880SOL    HW190434   7.573   9.821   8.521
28880SOL    HW290435   7.501   9.869   8.660
28881SOL     OW90436   7.637   9.830   9.170
28881SOL    HW190437   7.696   9.790   9.100
28881SOL    HW290438   7.579   9.901   9.129
28882SOL     OW90439   8.263   9.882   7.773
28882SOL    HW190440   8.270   9.793   7.727
28882SOL    HW290441   8.169   9.916   7.765
28883SOL     OW90442   9.105   9.914   8.654
28883SOL    HW190443   9.067   9.845   8.716
28883SOL    HW290444   9.187   9.878   8.610
28884SOL     OW90445   8.119   9.774   8.717
28884SOL    HW190446   8.085   9.685   8.687
28884SOL    HW290447   8.145   9.828   8.637
28885SOL     OW90448   9.174   9.445   7.971
28885SOL    HW190449   9.247   9.428   7.904
28885SOL    HW290450   9.143   9.358   8.009
28886SOL     OW90451   9.289   9.485   8.411
28886SOL    HW190452   9.328   9.400   8.375
28886SOL    HW290453   9.191   9.487   8.392
28887SOL     OW90454   7.711   9.636   8.168
28887SOL    HW190455   7.632   9.687   8.134
28887SOL    HW290456   7.702   9.621   8.266
28888SOL     OW90457   8.462   9.546   8.419
28888SOL    HW190458   8.454   9.510   8.326
28888SOL    HW290459   8.460   9.470   8.484
28889SOL     OW90460   9.157   9.695   8.829
28889SOL    HW190461   9.230   9.764   8.833
28889SOL    HW290462   9.185   9.620   8.770
28890SOL     OW90463   8.120   9.513   8.937
28890SOL    HW190464   8.210   9.497   8.897
28890SOL    HW290465   8.128   9.518   9.036
28891SOL     OW90466   7.523   9.655   7.481
28891SOL    HW190467   7.431   9.627   7.452
28891SOL    HW290468   7.554   9.732   7.425
28892SOL     OW90469   7.520   9.476   7.766
28892SOL    HW190470   7.503   9.559   7.712
28892SOL    HW290471   7.610   9.439   7.744
28893SOL     OW90472   8.164   9.875   9.156
28893SOL    HW190473   8.183   9.940   9.230
28893SOL    HW290474   8.224   9.795   9.165
28894SOL     OW90475   8.673   9.635   7.897
28894SOL    HW190476   8.738   9.561   7.886
28894SOL    HW290477   8.693   9.685   7.981
28895SOL     OW90478   9.225   9.652   9.090
28895SOL    HW190479   9.208   9.683   8.996
28895SOL    HW290480   9.141   9.615   9.128
28896SOL     OW90481   8.531  10.294   7.535
28896SOL    HW190482   8.508  10.347   7.453
28896SOL    HW290483   8.612  10.238   7.516
28897SOL     OW90484   9.272   9.502   8.675
28897SOL    HW190485   9.268   9.412   8.719
28897SOL    HW290486   9.275   9.491   8.576
28898SOL     OW90487   7.876   9.734   7.968
28898SOL    HW190488   7.906   9.662   7.906
28898SOL    HW290489   7.837   9.694   8.051
28899SOL     OW90490   7.765   9.857   8.728
28899SOL    HW190491   7.803   9.798   8.800
28899SOL    HW290492   7.805   9.831   8.640
28900SOL     OW90493   8.872   9.524   8.560
28900SOL    HW190494   8.924   9.459   8.615
28900SOL    HW290495   8.823   9.587   8.621
28901SOL     OW90496   8.449   9.344   8.602
28901SOL    HW190497   8.386   9.272   8.571
28901SOL    HW290498   8.542   9.308   8.602
28902SOL     OW90499   8.800   9.362   7.616
28902SOL    HW190500   8.835   9.321   7.532
28902SOL    HW290501   8.710   9.324   7.636
28903SOL     OW90502   8.748   9.763   8.139
28903SOL    HW190503   8.689   9.843   8.143
28903SOL    HW290504   8.763   9.728   8.232
28904SOL     OW90505   9.041   9.531   8.330
28904SOL    HW190506   8.957   9.530   8.384
28904SOL    HW290507   9.043   9.614   8.274
28905SOL     OW90508   9.203   9.917   9.541
28905SOL    HW190509   9.191   9.904   9.442
28905SOL    HW290510   9.173   9.836   9.590
28906SOL     OW90511   7.570   9.953   9.873
28906SOL    HW190512   7.525   9.865   9.890
28906SOL    HW290513   7.569  10.007   9.957
28907SOL     OW90514   8.257   9.314   9.812
28907SOL    HW190515   8.297   9.405   9.803
28907SOL    HW290516   8.157   9.322   9.818
28908SOL     OW90517   8.313   9.658   9.505
28908SOL    HW190518   8.372   9.721   9.456
28908SOL    HW290519   8.332   9.564   9.476
28909SOL     OW90520   8.848   9.417   9.736
28909SOL    HW190521   8.824   9.380   9.646
28909SOL    HW290522   8.947   9.433   9.740
28910SOL     OW90523   8.062   9.432   9.427
28910SOL    HW190524   8.160   9.410   9.434
28910SOL    HW290525   8.031   9.415   9.334
28911SOL     OW90526   7.987   9.374   9.822
28911SOL    HW190527   7.906   9.375   9.880
28911SOL    HW290528   7.990   9.457   9.767
28912SOL     OW90529   7.745   9.345   9.481
28912SOL    HW190530   7.794   9.429   9.460
28912SOL    HW290531   7.807   9.280   9.526
28913SOL     OW90532   8.383   9.546   9.790
28913SOL    HW190533   8.335   9.587   9.712
28913SOL    HW290534   8.482   9.544   9.771
28914SOL     OW90535   8.480   9.859   9.326
28914SOL    HW190536   8.439   9.941   9.287
28914SOL    HW290537   8.544   9.885   9.399
28915SOL     OW90538   7.975   9.566   9.638
28915SOL    HW190539   8.002   9.507   9.563
28915SOL    HW290540   7.975   9.661   9.607
28916SOL     OW90541   9.030   9.949   9.782
28916SOL    HW190542   8.999  10.010   9.855
28916SOL    HW290543   9.080  10.001   9.713
28917SOL     OW90544   8.657   9.835   9.585
28917SOL    HW190545   8.670   9.751   9.639
28917SOL    HW290546   8.628   9.909   9.645
28918SOL     OW90547   7.755   9.373   9.928
28918SOL    HW190548   7.744   9.467   9.961
28918SOL    HW290549   7.750   9.310  10.005
28919SOL     OW90550   9.070   9.677   9.684
28919SOL    HW190551   9.072   9.601   9.748
28919SOL    HW290552   9.022   9.754   9.724
28920SOL     OW90553   8.988   9.584   9.435
28920SOL    HW190554   8.927   9.509   9.458
28920SOL    HW290555   9.010   9.636   9.518
28921SOL     OW90556   7.787   9.819  10.316
28921SOL    HW190557   7.735   9.736  10.299
28921SOL    HW290558   7.864   9.824  10.252
28922SOL     OW90559   9.174   9.445   9.833
28922SOL    HW190560   9.247   9.428   9.766
28922SOL    HW290561   9.143   9.358   9.871
28923SOL     OW90562   7.523   9.655   9.343
28923SOL    HW190563   7.431   9.627   9.314
28923SOL    HW290564   7.554   9.732   9.287
28924SOL     OW90565   7.520   9.476   9.628
28924SOL    HW190566   7.503   9.559   9.574
28924SOL    HW290567   7.610   9.439   9.606
28925SOL     OW90568   8.673   9.635   9.759
28925SOL    HW190569   8.738   9.561   9.748
28925SOL    HW290570   8.693   9.685   9.843
28926SOL     OW90571   8.531  10.294   9.397
28926SOL    HW190572   8.508  10.347   9.315
28926SOL    HW290573   8.612  10.238   9.378
28927SOL     OW90574   7.876   9.734   9.830
28927SOL    HW190575   7.906   9.662   9.768
28927SOL    HW290576   7.837   9.694   9.913
28928SOL     OW90577   8.800   9.362   9.478
28928SOL    HW190578   8.835   9.321   9.394
28928SOL    HW290579   8.710   9.324   9.498
28929SOL     OW90580   8.748   9.763  10.001
28929SOL    HW190581   8.689   9.843  10.005
28929SOL    HW290582   8.763   9.728  10.094
28930SOL     OW90583   9.540   0.628   0.113
28930SOL    HW190584   9.447   0.626   0.150
28930SOL    HW290585   9.541   0.589   0.021
28931SOL     OW90586   9.535   0.275   0.996
28931SOL    HW190587   9.570   0.258   1.088
28931SOL    HW290588   9.447   0.230   0.984
28932SOL     OW90589   9.329   0.368   0.647
28932SOL    HW190590   9.247   0.411   0.686
28932SOL    HW290591   9.301   0.295   0.584
28933SOL     OW90592   9.879   1.275   1.165
28933SOL    HW190593   9.786   1.268   1.128
28933SOL    HW290594   9.890   1.364   1.209
28934SOL     OW90595  10.160   0.798   1.823
28934SOL    HW190596  10.156   0.874   1.888
28934SOL    HW290597  10.182   0.834   1.732
28935SOL     OW90598   9.645   1.435   1.061
28935SOL    HW190599   9.567   1.404   1.008
28935SOL    HW290600   9.703   1.493   1.004
28936SOL     OW90601   9.550   1.091   0.886
28936SOL    HW190602   9.564   1.007   0.938
28936SOL    HW290603   9.495   1.155   0.941
28937SOL     OW90604   9.432   0.643   0.563
28937SOL    HW190605   9.387   0.555   0.580
28937SOL    HW290606   9.431   0.697   0.647
28938SOL     OW90607   9.423   0.737   1.597
28938SOL    HW190608   9.511   0.724   1.642
28938SOL    HW290609   9.410   0.834   1.575
28939SOL     OW90610   9.923   1.365   0.726
28939SOL    HW190611   9.874   1.278   0.735
28939SOL    HW290612   9.900   1.408   0.639
28940SOL     OW90613   9.507   0.976   1.264
28940SOL    HW190614   9.596   0.931   1.250
28940SOL    HW290615   9.434   0.911   1.245
28941SOL     OW90616   9.908   0.729   0.270
28941SOL    HW190617   9.932   0.798   0.202
28941SOL    HW290618   9.830   0.762   0.324
28942SOL     OW90619   9.386   0.811   0.789
28942SOL    HW190620   9.485   0.799   0.798
28942SOL    HW290621   9.362   0.906   0.810
28943SOL     OW90622   9.440   1.821   1.571
28943SOL    HW190623   9.430   1.806   1.670
28943SOL    HW290624   9.354   1.857   1.535
28944SOL     OW90625  10.175   0.348   0.195
28944SOL    HW190626  10.234   0.411   0.146
28944SOL    HW290627  10.194   0.254   0.166
28945SOL     OW90628   9.860   0.196   0.885
28945SOL    HW190629   9.855   0.191   0.985
28945SOL    HW290630   9.862   0.292   0.856
28946SOL     OW90631   9.661   1.801   0.853
28946SOL    HW190632   9.711   1.715   0.859
28946SOL    HW290633   9.726   1.878   0.850
28947SOL     OW90634   9.631   0.943   0.242
28947SOL    HW190635   9.713   0.982   0.200
28947SOL    HW290636   9.604   0.861   0.193
28948SOL     OW90637   9.771   1.266   1.727
28948SOL    HW190638   9.721   1.267   1.641
28948SOL    HW290639   9.708   1.248   1.803
28949SOL     OW90640   9.512   0.285   1.498
28949SOL    HW190641   9.432   0.345   1.485
28949SOL    HW290642   9.502   0.236   1.584
28950SOL     OW90643   9.559   1.785   1.241
28950SOL    HW190644   9.616   1.720   1.291
28950SOL    HW290645   9.543   1.752   1.148
28951SOL     OW90646   9.692   0.700   0.480
28951SOL    HW190647   9.737   0.610   0.477
28951SOL    HW290648   9.598   0.689   0.513
28952SOL     OW90649  10.113   1.402   0.924
28952SOL    HW190650  10.203   1.416   0.882
28952SOL    HW290651  10.042   1.404   0.853
28953SOL     OW90652   9.849   0.064   0.512
28953SOL    HW190653   9.768   0.065   0.570
28953SOL    HW290654   9.852   0.147   0.457
28954SOL     OW90655   9.607   0.035   0.171
28954SOL    HW190656   9.656   0.119   0.150
28954SOL    HW290657   9.669  -0.030   0.216
28955SOL     OW90658  10.245   0.236   0.480
28955SOL    HW190659  10.197   0.277   0.402
28955SOL    HW290660  10.344   0.234   0.461
28956SOL     OW90661   9.769   1.152   0.741
28956SOL    HW190662   9.698   1.125   0.806
28956SOL    HW290663   9.743   1.124   0.648
28957SOL     OW90664   9.388   0.556   1.386
28957SOL    HW190665   9.480   0.555   1.345
28957SOL    HW290666   9.382   0.630   1.453
28958SOL     OW90667   9.837   0.256   0.328
28958SOL    HW190668   9.864   0.197   0.253
28958SOL    HW290669   9.837   0.351   0.297
28959SOL     OW90670   9.720   0.813   1.251
28959SOL    HW190671   9.806   0.825   1.301
28959SOL    HW290672   9.678   0.726   1.278
28960SOL     OW90673   9.374   1.564   1.331
28960SOL    HW190674   9.328   1.646   1.297
28960SOL    HW290675   9.472   1.583   1.340
28961SOL     OW90676   9.677   1.100   0.501
28961SOL    HW190677   9.670   1.183   0.445
28961SOL    HW290678   9.681   1.020   0.441
28962SOL     OW90679   9.876   0.537   0.865
28962SOL    HW190680   9.888   0.603   0.791
28962SOL    HW290681   9.922   0.571   0.948
28963SOL     OW90682   9.664   1.510   1.329
28963SOL    HW190683   9.643   1.466   1.242
28963SOL    HW290684   9.761   1.536   1.332
28964SOL     OW90685   9.712   0.751   1.598
28964SOL    HW190686   9.780   0.806   1.551
28964SOL    HW290687   9.752   0.663   1.625
28965SOL     OW90688   9.883   0.870   1.029
28965SOL    HW190689   9.927   0.959   1.020
28965SOL    HW290690   9.820   0.870   1.106
28966SOL     OW90691   9.617   0.213   1.231
28966SOL    HW190692   9.594   0.250   1.321
28966SOL    HW290693   9.587   0.118   1.225
28967SOL     OW90694   9.347   1.310   1.282
28967SOL    HW190695   9.400   1.261   1.350
28967SOL    HW290696   9.369   1.408   1.287
28968SOL     OW90697   9.617   0.063   0.618
28968SOL    HW190698   9.606   0.157   0.651
28968SOL    HW290699   9.612   0.000   0.695
28969SOL     OW90700   9.660   0.898   1.804
28969SOL    HW190701   9.736   0.942   1.852
28969SOL    HW290702   9.695   0.851   1.722
28970SOL     OW90703   9.629   0.810   0.949
28970SOL    HW190704   9.722   0.846   0.954
28970SOL    HW290705   9.623   0.725   1.001
28971SOL     OW90706   9.649   0.509   1.006
28971SOL    HW190707   9.597   0.426   0.989
28971SOL    HW290708   9.726   0.514   0.942
28972SOL     OW90709   9.318   1.326   0.200
28972SOL    HW190710   9.225   1.347   0.169
28972SOL    HW290711   9.328   1.227   0.213
28973SOL     OW90712   9.398   1.801   0.927
28973SOL    HW190713   9.356   1.715   0.900
28973SOL    HW290714   9.492   1.804   0.893
28974SOL     OW90715   9.814   1.568   0.910
28974SOL    HW190716   9.880   1.642   0.919
28974SOL    HW290717   9.858   1.489   0.868
28975SOL     OW90718   9.350   0.544   1.114
28975SOL    HW190719   9.435   0.511   1.073
28975SOL    HW290720   9.363   0.559   1.212
28976SOL     OW90721   9.499   0.520   1.722
28976SOL    HW190722   9.558   0.480   1.652
28976SOL    HW290723   9.441   0.591   1.681
28977SOL     OW90724  10.125   0.572   0.325
28977SOL    HW190725  10.132   0.483   0.279
28977SOL    HW290726  10.031   0.606   0.317
28978SOL     OW90727   9.562   1.564   1.744
28978SOL    HW190728   9.532   1.621   1.820
28978SOL    HW290729   9.555   1.467   1.770
28979SOL     OW90730   9.783   0.500   0.191
28979SOL    HW190731   9.844   0.580   0.195
28979SOL    HW290732   9.688   0.531   0.198
28980SOL     OW90733   9.469   1.137   1.466
28980SOL    HW190734   9.491   1.076   1.542
28980SOL    HW290735   9.479   1.088   1.380
28981SOL     OW90736   9.393   1.258   1.022
28981SOL    HW190737   9.388   1.257   1.122
28981SOL    HW290738   9.310   1.217   0.984
28982SOL     OW90739   9.998   1.662   1.716
28982SOL    HW190740   9.942   1.743   1.725
28982SOL    HW290741  10.050   1.666   1.630
28983SOL     OW90742   9.440   1.794   1.851
28983SOL    HW190743   9.399   1.720   1.904
28983SOL    HW290744   9.504   1.845   1.909
28984SOL     OW90745   9.573   0.326   0.720
28984SOL    HW190746   9.494   0.377   0.686
28984SOL    HW290747   9.564   0.311   0.818
28985SOL     OW90748   9.682   1.288   1.490
28985SOL    HW190749   9.669   1.381   1.456
28985SOL    HW290750   9.598   1.236   1.477
28986SOL     OW90751   9.385   0.345   0.033
28986SOL    HW190752   9.293   0.317   0.004
28986SOL    HW290753   9.416   0.422  -0.023
28987SOL     OW90754   9.923   0.842   1.431
28987SOL    HW190755   9.979   0.923   1.414
28987SOL    HW290756   9.982   0.762   1.434
28988SOL     OW90757   9.700   1.741   1.560
28988SOL    HW190758   9.609   1.782   1.558
28988SOL    HW290759   9.693   1.647   1.592
28989SOL     OW90760   9.904   0.745   0.652
28989SOL    HW190761   9.954   0.830   0.633
28989SOL    HW290762   9.816   0.747   0.604
28990SOL     OW90763   9.531   1.314   1.844
28990SOL    HW190764   9.466   1.241   1.823
28990SOL    HW290765   9.535   1.328   1.942
28991SOL     OW90766   9.389   1.240   0.653
28991SOL    HW190767   9.388   1.193   0.741
28991SOL    HW290768   9.471   1.212   0.602
28992SOL     OW90769   9.982   1.391   1.624
28992SOL    HW190770   9.904   1.341   1.662
28992SOL    HW290771   9.979   1.486   1.655
28993SOL     OW90772   9.738   0.424   0.520
28993SOL    HW190773   9.768   0.352   0.458
28993SOL    HW290774   9.699   0.384   0.603
28994SOL     OW90775   9.627   0.547   1.280
28994SOL    HW190776   9.665   0.488   1.352
28994SOL    HW290777   9.667   0.521   1.192
28995SOL     OW90778   9.349   1.077   0.300
28995SOL    HW190779   9.448   1.066   0.291
28995SOL    HW290780   9.309   0.991   0.332
28996SOL     OW90781   9.535   0.275   2.858
28996SOL    HW190782   9.570   0.258   2.950
28996SOL    HW290783   9.447   0.230   2.846
28997SOL     OW90784   9.329   0.368   2.509
28997SOL    HW190785   9.247   0.411   2.548
28997SOL    HW290786   9.301   0.295   2.446
28998SOL     OW90787  10.160   0.798   3.685
28998SOL    HW190788  10.156   0.874   3.750
28998SOL    HW290789  10.182   0.834   3.594
28999SOL     OW90790   9.748   0.392   3.361
28999SOL    HW190791   9.830   0.336   3.370
28999SOL    HW290792   9.667   0.334   3.365
29000SOL     OW90793   9.541   1.713   2.345
29000SOL    HW190794   9.575   1.790   2.399
29000SOL    HW290795   9.585   1.713   2.255
29001SOL     OW90796   9.540   1.434   2.400
29001SOL    HW190797   9.514   1.530   2.400
29001SOL    HW290798   9.469   1.380   2.445
29002SOL     OW90799   9.432   0.643   2.425
29002SOL    HW190800   9.387   0.555   2.442
29002SOL    HW290801   9.431   0.697   2.509
29003SOL     OW90802   9.337   1.596   1.979
29003SOL    HW190803   9.318   1.500   2.000
29003SOL    HW290804   9.304   1.654   2.054
29004SOL     OW90805   9.423   0.737   3.459
29004SOL    HW190806   9.511   0.724   3.504
29004SOL    HW290807   9.410   0.834   3.437
29005SOL     OW90808   9.923   1.365   2.588
29005SOL    HW190809   9.874   1.278   2.597
29005SOL    HW290810   9.900   1.408   2.501
29006SOL     OW90811   9.908   0.729   2.132
29006SOL    HW190812   9.932   0.798   2.064
29006SOL    HW290813   9.830   0.762   2.186
29007SOL     OW90814   9.386   0.811   2.651
29007SOL    HW190815   9.485   0.799   2.660
29007SOL    HW290816   9.362   0.906   2.672
29008SOL     OW90817   9.440   1.821   3.433
29008SOL    HW190818   9.430   1.806   3.532
29008SOL    HW290819   9.354   1.857   3.397
29009SOL     OW90820  10.175   0.348   2.057
29009SOL    HW190821  10.234   0.411   2.008
29009SOL    HW290822  10.194   0.254   2.028
29010SOL     OW90823   9.860   0.196   2.747
29010SOL    HW190824   9.855   0.191   2.847
29010SOL    HW290825   9.862   0.292   2.718
29011SOL     OW90826   9.661   1.801   2.715
29011SOL    HW190827   9.711   1.715   2.721
29011SOL    HW290828   9.726   1.878   2.712
29012SOL     OW90829   9.631   0.943   2.104
29012SOL    HW190830   9.713   0.982   2.062
29012SOL    HW290831   9.604   0.861   2.055
29013SOL     OW90832   9.771   1.266   3.589
29013SOL    HW190833   9.721   1.267   3.503
29013SOL    HW290834   9.708   1.248   3.665
29014SOL     OW90835   9.774   1.743   2.185
29014SOL    HW190836   9.807   1.782   2.271
29014SOL    HW290837   9.850   1.736   2.120
29015SOL     OW90838   9.559   1.785   3.103
29015SOL    HW190839   9.616   1.720   3.153
29015SOL    HW290840   9.543   1.752   3.010
29016SOL     OW90841   9.692   0.700   2.342
29016SOL    HW190842   9.737   0.610   2.339
29016SOL    HW290843   9.598   0.689   2.375
29017SOL     OW90844  10.113   1.402   2.786
29017SOL    HW190845  10.203   1.416   2.744
29017SOL    HW290846  10.042   1.404   2.715
29018SOL     OW90847   9.849   0.064   2.374
29018SOL    HW190848   9.768   0.065   2.432
29018SOL    HW290849   9.852   0.147   2.319
29019SOL     OW90850   9.607   0.035   2.033
29019SOL    HW190851   9.656   0.119   2.012
29019SOL    HW290852   9.669  -0.030   2.078
29020SOL     OW90853  10.245   0.236   2.342
29020SOL    HW190854  10.197   0.277   2.264
29020SOL    HW290855  10.344   0.234   2.323
29021SOL     OW90856   9.769   1.152   2.603
29021SOL    HW190857   9.698   1.125   2.668
29021SOL    HW290858   9.743   1.124   2.510
29022SOL     OW90859   9.388   0.556   3.248
29022SOL    HW190860   9.480   0.555   3.207
29022SOL    HW290861   9.382   0.630   3.315
29023SOL     OW90862   9.871   0.222   3.009
29023SOL    HW190863   9.909   0.138   3.046
29023SOL    HW290864   9.783   0.241   3.053
29024SOL     OW90865   9.374   1.564   3.193
29024SOL    HW190866   9.328   1.646   3.159
29024SOL    HW290867   9.472   1.583   3.202
29025SOL     OW90868   9.677   1.100   2.363
29025SOL    HW190869   9.670   1.183   2.307
29025SOL    HW290870   9.681   1.020   2.303
29026SOL     OW90871   9.876   0.537   2.727
29026SOL    HW190872   9.888   0.603   2.653
29026SOL    HW290873   9.922   0.571   2.810
29027SOL     OW90874   9.664   1.510   3.191
29027SOL    HW190875   9.643   1.466   3.104
29027SOL    HW290876   9.761   1.536   3.194
29028SOL     OW90877   9.712   0.751   3.460
29028SOL    HW190878   9.780   0.806   3.413
29028SOL    HW290879   9.752   0.663   3.487
29029SOL     OW90880   9.814   0.050   3.602
29029SOL    HW190881   9.772  -0.007   3.532
29029SOL    HW290882   9.748   0.119   3.634
29030SOL     OW90883   9.883   0.870   2.891
29030SOL    HW190884   9.927   0.959   2.882
29030SOL    HW290885   9.820   0.870   2.968
29031SOL     OW90886   9.617   0.213   3.093
29031SOL    HW190887   9.594   0.250   3.183
29031SOL    HW290888   9.587   0.118   3.087
29032SOL     OW90889   9.617   0.063   2.480
29032SOL    HW190890   9.606   0.157   2.513
29032SOL    HW290891   9.612   0.000   2.557
29033SOL     OW90892   9.660   0.898   3.666
29033SOL    HW190893   9.736   0.942   3.714
29033SOL    HW290894   9.695   0.851   3.584
29034SOL     OW90895   9.629   0.810   2.811
29034SOL    HW190896   9.722   0.846   2.816
29034SOL    HW290897   9.623   0.725   2.863
29035SOL     OW90898   9.649   0.509   2.868
29035SOL    HW190899   9.597   0.426   2.851
29035SOL    HW290900   9.726   0.514   2.804
29036SOL     OW90901   9.318   1.326   2.062
29036SOL    HW190902   9.225   1.347   2.031
29036SOL    HW290903   9.328   1.227   2.075
29037SOL     OW90904   9.398   1.801   2.789
29037SOL    HW190905   9.356   1.715   2.762
29037SOL    HW290906   9.492   1.804   2.755
29038SOL     OW90907   9.814   1.568   2.772
29038SOL    HW190908   9.880   1.642   2.781
29038SOL    HW290909   9.858   1.489   2.730
29039SOL     OW90910   9.350   0.544   2.976
29039SOL    HW190911   9.435   0.511   2.935
29039SOL    HW290912   9.363   0.559   3.074
29040SOL     OW90913   9.499   0.520   3.584
29040SOL    HW190914   9.558   0.480   3.514
29040SOL    HW290915   9.441   0.591   3.543
29041SOL     OW90916  10.125   0.572   2.187
29041SOL    HW190917  10.132   0.483   2.141
29041SOL    HW290918  10.031   0.606   2.179
29042SOL     OW90919   9.562   1.564   3.606
29042SOL    HW190920   9.532   1.621   3.682
29042SOL    HW290921   9.555   1.467   3.632
29043SOL     OW90922   9.998   1.662   3.578
29043SOL    HW190923   9.942   1.743   3.587
29043SOL    HW290924  10.050   1.666   3.492
29044SOL     OW90925   9.440   1.794   3.713
29044SOL    HW190926   9.399   1.720   3.766
29044SOL    HW290927   9.504   1.845   3.771
29045SOL     OW90928   9.573   0.326   2.582
29045SOL    HW190929   9.494   0.377   2.548
29045SOL    HW290930   9.564   0.311   2.680
29046SOL     OW90931   9.682   1.288   3.352
29046SOL    HW190932   9.669   1.381   3.318
29046SOL    HW290933   9.598   1.236   3.339
29047SOL     OW90934   9.900   1.487   2.353
29047SOL    HW190935   9.942   1.429   2.283
29047SOL    HW290936   9.856   1.566   2.309
29048SOL     OW90937   9.565   1.348   2.152
29048SOL    HW190938   9.469   1.349   2.125
29048SOL    HW290939   9.577   1.401   2.236
29049SOL     OW90940   9.415   1.013   3.588
29049SOL    HW190941   9.338   0.980   3.642
29049SOL    HW290942   9.500   0.983   3.630
29050SOL     OW90943   9.982   0.203   3.351
29050SOL    HW190944  10.072   0.187   3.311
29050SOL    HW290945   9.990   0.208   3.450
29051SOL     OW90946   9.385   0.345   1.895
29051SOL    HW190947   9.293   0.317   1.866
29051SOL    HW290948   9.416   0.422   1.839
29052SOL     OW90949   9.382   0.166   2.180
29052SOL    HW190950   9.365   0.249   2.126
29052SOL    HW290951   9.472   0.129   2.158
29053SOL     OW90952   9.923   0.842   3.293
29053SOL    HW190953   9.979   0.923   3.276
29053SOL    HW290954   9.982   0.762   3.296
29054SOL     OW90955   9.700   1.741   3.422
29054SOL    HW190956   9.609   1.782   3.420
29054SOL    HW290957   9.693   1.647   3.454
29055SOL     OW90958   9.904   0.745   2.514
29055SOL    HW190959   9.954   0.830   2.495
29055SOL    HW290960   9.816   0.747   2.466
29056SOL     OW90961   9.531   1.314   3.706
29056SOL    HW190962   9.466   1.241   3.685
29056SOL    HW290963   9.535   1.328   3.804
29057SOL     OW90964   9.389   1.240   2.515
29057SOL    HW190965   9.388   1.193   2.603
29057SOL    HW290966   9.471   1.212   2.464
29058SOL     OW90967   9.982   1.391   3.486
29058SOL    HW190968   9.904   1.341   3.524
29058SOL    HW290969   9.979   1.486   3.517
29059SOL     OW90970   9.738   0.424   2.382
29059SOL    HW190971   9.768   0.352   2.320
29059SOL    HW290972   9.699   0.384   2.465
29060SOL     OW90973   9.627   0.547   3.142
29060SOL    HW190974   9.665   0.488   3.214
29060SOL    HW290975   9.667   0.521   3.054
29061SOL     OW90976   9.349   1.077   2.162
29061SOL    HW190977   9.448   1.066   2.153
29061SOL    HW290978   9.309   0.991   2.194
29062SOL     OW90979   9.540   0.628   3.837
29062SOL    HW190980   9.447   0.626   3.874
29062SOL    HW290981   9.541   0.589   3.745
29063SOL     OW90982   9.535   0.275   4.720
29063SOL    HW190983   9.570   0.258   4.812
29063SOL    HW290984   9.447   0.230   4.708
29064SOL     OW90985   9.329   0.368   4.371
29064SOL    HW190986   9.247   0.411   4.410
29064SOL    HW290987   9.301   0.295   4.308
29065SOL     OW90988   9.879   1.275   4.889
29065SOL    HW190989   9.786   1.268   4.852
29065SOL    HW290990   9.890   1.364   4.933
29066SOL     OW90991  10.160   0.798   5.547
29066SOL    HW190992  10.156   0.874   5.612
29066SOL    HW290993  10.182   0.834   5.456
29067SOL     OW90994   9.645   1.435   4.785
29067SOL    HW190995   9.567   1.404   4.732
29067SOL    HW290996   9.703   1.493   4.728
29068SOL     OW90997   9.748   0.392   5.223
29068SOL    HW190998   9.830   0.336   5.232
29068SOL    HW290999   9.667   0.334   5.227
29069SOL     OW91000   9.541   1.713   4.207
29069SOL    HW191001   9.575   1.790   4.261
29069SOL    HW291002   9.585   1.713   4.117
29070SOL     OW91003   9.540   1.434   4.262
29070SOL    HW191004   9.514   1.530   4.262
29070SOL    HW291005   9.469   1.380   4.307
29071SOL     OW91006   9.337   1.596   3.841
29071SOL    HW191007   9.318   1.500   3.862
29071SOL    HW291008   9.304   1.654   3.916
29072SOL     OW91009   9.423   0.737   5.321
29072SOL    HW191010   9.511   0.724   5.366
29072SOL    HW291011   9.410   0.834   5.299
29073SOL     OW91012   9.923   1.365   4.450
29073SOL    HW191013   9.874   1.278   4.459
29073SOL    HW291014   9.900   1.408   4.363
29074SOL     OW91015   9.507   0.976   4.988
29074SOL    HW191016   9.596   0.931   4.974
29074SOL    HW291017   9.434   0.911   4.969
29075SOL     OW91018   9.627   0.251   5.525
29075SOL    HW191019   9.698   0.322   5.531
29075SOL    HW291020   9.539   0.290   5.553
29076SOL     OW91021   9.908   0.729   3.994
29076SOL    HW191022   9.932   0.798   3.926
29076SOL    HW291023   9.830   0.762   4.048
29077SOL     OW91024   9.440   1.821   5.295
29077SOL    HW191025   9.430   1.806   5.394
29077SOL    HW291026   9.354   1.857   5.259
29078SOL     OW91027   9.860   0.196   4.609
29078SOL    HW191028   9.855   0.191   4.709
29078SOL    HW291029   9.862   0.292   4.580
29079SOL     OW91030   9.661   1.801   4.577
29079SOL    HW191031   9.711   1.715   4.583
29079SOL    HW291032   9.726   1.878   4.574
29080SOL     OW91033   9.631   0.943   3.966
29080SOL    HW191034   9.713   0.982   3.924
29080SOL    HW291035   9.604   0.861   3.917
29081SOL     OW91036   9.771   1.266   5.451
29081SOL    HW191037   9.721   1.267   5.365
29081SOL    HW291038   9.708   1.248   5.527
29082SOL     OW91039   9.512   0.285   5.222
29082SOL    HW191040   9.432   0.345   5.209
29082SOL    HW291041   9.502   0.236   5.308
29083SOL     OW91042   9.774   1.743   4.047
29083SOL    HW191043   9.807   1.782   4.133
29083SOL    HW291044   9.850   1.736   3.982
29084SOL     OW91045   9.559   1.785   4.965
29084SOL    HW191046   9.616   1.720   5.015
29084SOL    HW291047   9.543   1.752   4.872
29085SOL     OW91048   9.924   0.122   3.841
29085SOL    HW191049  10.022   0.100   3.848
29085SOL    HW291050   9.893   0.105   3.748
29086SOL     OW91051  10.113   1.402   4.648
29086SOL    HW191052  10.203   1.416   4.606
29086SOL    HW291053  10.042   1.404   4.577
29087SOL     OW91054   9.769   1.152   4.465
29087SOL    HW191055   9.698   1.125   4.530
29087SOL    HW291056   9.743   1.124   4.372
29088SOL     OW91057   9.388   0.556   5.110
29088SOL    HW191058   9.480   0.555   5.069
29088SOL    HW291059   9.382   0.630   5.177
29089SOL     OW91060   9.871   0.222   4.871
29089SOL    HW191061   9.909   0.138   4.908
29089SOL    HW291062   9.783   0.241   4.915
29090SOL     OW91063   9.720   0.813   4.975
29090SOL    HW191064   9.806   0.825   5.025
29090SOL    HW291065   9.678   0.726   5.002
29091SOL     OW91066   9.374   1.564   5.055
29091SOL    HW191067   9.328   1.646   5.021
29091SOL    HW291068   9.472   1.583   5.064
29092SOL     OW91069   9.876   0.537   4.589
29092SOL    HW191070   9.888   0.603   4.515
29092SOL    HW291071   9.922   0.571   4.672
29093SOL     OW91072   9.664   1.510   5.053
29093SOL    HW191073   9.643   1.466   4.966
29093SOL    HW291074   9.761   1.536   5.056
29094SOL     OW91075   9.712   0.751   5.322
29094SOL    HW191076   9.780   0.806   5.275
29094SOL    HW291077   9.752   0.663   5.349
29095SOL     OW91078   9.814   0.050   5.464
29095SOL    HW191079   9.772  -0.007   5.394
29095SOL    HW291080   9.748   0.119   5.496
29096SOL     OW91081   9.883   0.870   4.753
29096SOL    HW191082   9.927   0.959   4.744
29096SOL    HW291083   9.820   0.870   4.830
29097SOL     OW91084   9.617   0.213   4.955
29097SOL    HW191085   9.594   0.250   5.045
29097SOL    HW291086   9.587   0.118   4.949
29098SOL     OW91087   9.347   1.310   5.006
29098SOL    HW191088   9.400   1.261   5.074
29098SOL    HW291089   9.369   1.408   5.011
29099SOL     OW91090   9.660   0.898   5.528
29099SOL    HW191091   9.736   0.942   5.576
29099SOL    HW291092   9.695   0.851   5.446
29100SOL     OW91093   9.649   0.509   4.730
29100SOL    HW191094   9.597   0.426   4.713
29100SOL    HW291095   9.726   0.514   4.666
29101SOL     OW91096   9.318   1.326   3.924
29101SOL    HW191097   9.225   1.347   3.893
29101SOL    HW291098   9.328   1.227   3.937
29102SOL     OW91099   9.398   1.801   4.651
29102SOL    HW191100   9.356   1.715   4.624
29102SOL    HW291101   9.492   1.804   4.617
29103SOL     OW91102   9.814   1.568   4.634
29103SOL    HW191103   9.880   1.642   4.643
29103SOL    HW291104   9.858   1.489   4.592
29104SOL     OW91105   9.350   0.544   4.838
29104SOL    HW191106   9.435   0.511   4.797
29104SOL    HW291107   9.363   0.559   4.936
29105SOL     OW91108   9.499   0.520   5.446
29105SOL    HW191109   9.558   0.480   5.376
29105SOL    HW291110   9.441   0.591   5.405
29106SOL     OW91111  10.125   0.572   4.049
29106SOL    HW191112  10.132   0.483   4.003
29106SOL    HW291113  10.031   0.606   4.041
29107SOL     OW91114   9.562   1.564   5.468
29107SOL    HW191115   9.532   1.621   5.544
29107SOL    HW291116   9.555   1.467   5.494
29108SOL     OW91117   9.469   1.137   5.190
29108SOL    HW191118   9.491   1.076   5.266
29108SOL    HW291119   9.479   1.088   5.104
29109SOL     OW91120   9.393   1.258   4.746
29109SOL    HW191121   9.388   1.257   4.846
29109SOL    HW291122   9.310   1.217   4.708
29110SOL     OW91123   9.998   1.662   5.440
29110SOL    HW191124   9.942   1.743   5.449
29110SOL    HW291125  10.050   1.666   5.354
29111SOL     OW91126   9.440   1.794   5.575
29111SOL    HW191127   9.399   1.720   5.628
29111SOL    HW291128   9.504   1.845   5.633
29112SOL     OW91129   9.682   1.288   5.214
29112SOL    HW191130   9.669   1.381   5.180
29112SOL    HW291131   9.598   1.236   5.201
29113SOL     OW91132   9.900   1.487   4.215
29113SOL    HW191133   9.942   1.429   4.145
29113SOL    HW291134   9.856   1.566   4.171
29114SOL     OW91135   9.565   1.348   4.014
29114SOL    HW191136   9.469   1.349   3.987
29114SOL    HW291137   9.577   1.401   4.098
29115SOL     OW91138   9.415   1.013   5.450
29115SOL    HW191139   9.338   0.980   5.504
29115SOL    HW291140   9.500   0.983   5.492
29116SOL     OW91141   9.982   0.203   5.213
29116SOL    HW191142  10.072   0.187   5.173
29116SOL    HW291143   9.990   0.208   5.312
29117SOL     OW91144   9.923   0.842   5.155
29117SOL    HW191145   9.979   0.923   5.138
29117SOL    HW291146   9.982   0.762   5.158
29118SOL     OW91147   9.700   1.741   5.284
29118SOL    HW191148   9.609   1.782   5.282
29118SOL    HW291149   9.693   1.647   5.316
29119SOL     OW91150   9.904   0.745   4.376
29119SOL    HW191151   9.954   0.830   4.357
29119SOL    HW291152   9.816   0.747   4.328
29120SOL     OW91153   9.531   1.314   5.568
29120SOL    HW191154   9.466   1.241   5.547
29120SOL    HW291155   9.535   1.328   5.666
29121SOL     OW91156   9.982   1.391   5.348
29121SOL    HW191157   9.904   1.341   5.386
29121SOL    HW291158   9.979   1.486   5.379
29122SOL     OW91159   9.627   0.547   5.004
29122SOL    HW191160   9.665   0.488   5.076
29122SOL    HW291161   9.667   0.521   4.916
29123SOL     OW91162   9.349   1.077   4.024
29123SOL    HW191163   9.448   1.066   4.015
29123SOL    HW291164   9.309   0.991   4.056
29124SOL     OW91165   9.540   0.628   5.699
29124SOL    HW191166   9.447   0.626   5.736
29124SOL    HW291167   9.541   0.589   5.607
29125SOL     OW91168   9.535   0.275   6.582
29125SOL    HW191169   9.570   0.258   6.674
29125SOL    HW291170   9.447   0.230   6.570
29126SOL     OW91171   9.329   0.368   6.233
29126SOL    HW191172   9.247   0.411   6.272
29126SOL    HW291173   9.301   0.295   6.170
29127SOL     OW91174   9.879   1.275   6.751
29127SOL    HW191175   9.786   1.268   6.714
29127SOL    HW291176   9.890   1.364   6.795
29128SOL     OW91177  10.160   0.798   7.409
29128SOL    HW191178  10.156   0.874   7.474
29128SOL    HW291179  10.182   0.834   7.318
29129SOL     OW91180   9.645   1.435   6.647
29129SOL    HW191181   9.567   1.404   6.594
29129SOL    HW291182   9.703   1.493   6.590
29130SOL     OW91183   9.748   0.392   7.085
29130SOL    HW191184   9.830   0.336   7.094
29130SOL    HW291185   9.667   0.334   7.089
29131SOL     OW91186   9.541   1.713   6.069
29131SOL    HW191187   9.575   1.790   6.123
29131SOL    HW291188   9.585   1.713   5.979
29132SOL     OW91189   9.540   1.434   6.124
29132SOL    HW191190   9.514   1.530   6.124
29132SOL    HW291191   9.469   1.380   6.169
29133SOL     OW91192   9.550   1.091   6.472
29133SOL    HW191193   9.564   1.007   6.524
29133SOL    HW291194   9.495   1.155   6.527
29134SOL     OW91195   9.432   0.643   6.149
29134SOL    HW191196   9.387   0.555   6.166
29134SOL    HW291197   9.431   0.697   6.233
29135SOL     OW91198   9.337   1.596   5.703
29135SOL    HW191199   9.318   1.500   5.724
29135SOL    HW291200   9.304   1.654   5.778
29136SOL     OW91201   9.423   0.737   7.183
29136SOL    HW191202   9.511   0.724   7.228
29136SOL    HW291203   9.410   0.834   7.161
29137SOL     OW91204   9.923   1.365   6.312
29137SOL    HW191205   9.874   1.278   6.321
29137SOL    HW291206   9.900   1.408   6.225
29138SOL     OW91207   9.507   0.976   6.850
29138SOL    HW191208   9.596   0.931   6.836
29138SOL    HW291209   9.434   0.911   6.831
29139SOL     OW91210   9.627   0.251   7.387
29139SOL    HW191211   9.698   0.322   7.393
29139SOL    HW291212   9.539   0.290   7.415
29140SOL     OW91213   9.908   0.729   5.856
29140SOL    HW191214   9.932   0.798   5.788
29140SOL    HW291215   9.830   0.762   5.910
29141SOL     OW91216   9.386   0.811   6.375
29141SOL    HW191217   9.485   0.799   6.384
29141SOL    HW291218   9.362   0.906   6.396
29142SOL     OW91219   9.440   1.821   7.157
29142SOL    HW191220   9.430   1.806   7.256
29142SOL    HW291221   9.354   1.857   7.121
29143SOL     OW91222   9.860   0.196   6.471
29143SOL    HW191223   9.855   0.191   6.571
29143SOL    HW291224   9.862   0.292   6.442
29144SOL     OW91225   9.661   1.801   6.439
29144SOL    HW191226   9.711   1.715   6.445
29144SOL    HW291227   9.726   1.878   6.436
29145SOL     OW91228   9.631   0.943   5.828
29145SOL    HW191229   9.713   0.982   5.786
29145SOL    HW291230   9.604   0.861   5.779
29146SOL     OW91231   9.512   0.285   7.084
29146SOL    HW191232   9.432   0.345   7.071
29146SOL    HW291233   9.502   0.236   7.170
29147SOL     OW91234   9.774   1.743   5.909
29147SOL    HW191235   9.807   1.782   5.995
29147SOL    HW291236   9.850   1.736   5.844
29148SOL     OW91237   9.559   1.785   6.827
29148SOL    HW191238   9.616   1.720   6.877
29148SOL    HW291239   9.543   1.752   6.734
29149SOL     OW91240   9.692   0.700   6.066
29149SOL    HW191241   9.737   0.610   6.063
29149SOL    HW291242   9.598   0.689   6.099
29150SOL     OW91243  10.113   1.402   6.510
29150SOL    HW191244  10.203   1.416   6.468
29150SOL    HW291245  10.042   1.404   6.439
29151SOL     OW91246   9.849   0.064   6.098
29151SOL    HW191247   9.768   0.065   6.156
29151SOL    HW291248   9.852   0.147   6.043
29152SOL     OW91249   9.607   0.035   5.757
29152SOL    HW191250   9.656   0.119   5.736
29152SOL    HW291251   9.669  -0.030   5.802
29153SOL     OW91252  10.245   0.236   6.066
29153SOL    HW191253  10.197   0.277   5.988
29153SOL    HW291254  10.344   0.234   6.047
29154SOL     OW91255   9.769   1.152   6.327
29154SOL    HW191256   9.698   1.125   6.392
29154SOL    HW291257   9.743   1.124   6.234
29155SOL     OW91258   9.388   0.556   6.972
29155SOL    HW191259   9.480   0.555   6.931
29155SOL    HW291260   9.382   0.630   7.039
29156SOL     OW91261   9.871   0.222   6.733
29156SOL    HW191262   9.909   0.138   6.770
29156SOL    HW291263   9.783   0.241   6.777
29157SOL     OW91264   9.837   0.256   5.914
29157SOL    HW191265   9.864   0.197   5.839
29157SOL    HW291266   9.837   0.351   5.883
29158SOL     OW91267   9.720   0.813   6.837
29158SOL    HW191268   9.806   0.825   6.887
29158SOL    HW291269   9.678   0.726   6.864
29159SOL     OW91270   9.374   1.564   6.917
29159SOL    HW191271   9.328   1.646   6.883
29159SOL    HW291272   9.472   1.583   6.926
29160SOL     OW91273   9.677   1.100   6.087
29160SOL    HW191274   9.670   1.183   6.031
29160SOL    HW291275   9.681   1.020   6.027
29161SOL     OW91276   9.664   1.510   6.915
29161SOL    HW191277   9.643   1.466   6.828
29161SOL    HW291278   9.761   1.536   6.918
29162SOL     OW91279   9.712   0.751   7.184
29162SOL    HW191280   9.780   0.806   7.137
29162SOL    HW291281   9.752   0.663   7.211
29163SOL     OW91282   9.814   0.050   7.326
29163SOL    HW191283   9.772  -0.007   7.256
29163SOL    HW291284   9.748   0.119   7.358
29164SOL     OW91285   9.883   0.870   6.615
29164SOL    HW191286   9.927   0.959   6.606
29164SOL    HW291287   9.820   0.870   6.692
29165SOL     OW91288   9.617   0.213   6.817
29165SOL    HW191289   9.594   0.250   6.907
29165SOL    HW291290   9.587   0.118   6.811
29166SOL     OW91291   9.347   1.310   6.868
29166SOL    HW191292   9.400   1.261   6.936
29166SOL    HW291293   9.369   1.408   6.873
29167SOL     OW91294   9.617   0.063   6.204
29167SOL    HW191295   9.606   0.157   6.237
29167SOL    HW291296   9.612   0.000   6.281
29168SOL     OW91297   9.629   0.810   6.535
29168SOL    HW191298   9.722   0.846   6.540
29168SOL    HW291299   9.623   0.725   6.587
29169SOL     OW91300   9.649   0.509   6.592
29169SOL    HW191301   9.597   0.426   6.575
29169SOL    HW291302   9.726   0.514   6.528
29170SOL     OW91303   9.318   1.326   5.786
29170SOL    HW191304   9.225   1.347   5.755
29170SOL    HW291305   9.328   1.227   5.799
29171SOL     OW91306   9.398   1.801   6.513
29171SOL    HW191307   9.356   1.715   6.486
29171SOL    HW291308   9.492   1.804   6.479
29172SOL     OW91309   9.814   1.568   6.496
29172SOL    HW191310   9.880   1.642   6.505
29172SOL    HW291311   9.858   1.489   6.454
29173SOL     OW91312   9.350   0.544   6.700
29173SOL    HW191313   9.435   0.511   6.659
29173SOL    HW291314   9.363   0.559   6.798
29174SOL     OW91315   9.499   0.520   7.308
29174SOL    HW191316   9.558   0.480   7.238
29174SOL    HW291317   9.441   0.591   7.267
29175SOL     OW91318  10.125   0.572   5.911
29175SOL    HW191319  10.132   0.483   5.865
29175SOL    HW291320  10.031   0.606   5.903
29176SOL     OW91321   9.562   1.564   7.330
29176SOL    HW191322   9.532   1.621   7.406
29176SOL    HW291323   9.555   1.467   7.356
29177SOL     OW91324   9.783   0.500   5.777
29177SOL    HW191325   9.844   0.580   5.781
29177SOL    HW291326   9.688   0.531   5.784
29178SOL     OW91327   9.469   1.137   7.052
29178SOL    HW191328   9.491   1.076   7.128
29178SOL    HW291329   9.479   1.088   6.966
29179SOL     OW91330   9.393   1.258   6.608
29179SOL    HW191331   9.388   1.257   6.708
29179SOL    HW291332   9.310   1.217   6.570
29180SOL     OW91333   9.998   1.662   7.302
29180SOL    HW191334   9.942   1.743   7.311
29180SOL    HW291335  10.050   1.666   7.216
29181SOL     OW91336   9.440   1.794   7.437
29181SOL    HW191337   9.399   1.720   7.490
29181SOL    HW291338   9.504   1.845   7.495
29182SOL     OW91339   9.573   0.326   6.306
29182SOL    HW191340   9.494   0.377   6.272
29182SOL    HW291341   9.564   0.311   6.404
29183SOL     OW91342   9.682   1.288   7.076
29183SOL    HW191343   9.669   1.381   7.042
29183SOL    HW291344   9.598   1.236   7.063
29184SOL     OW91345   9.900   1.487   6.077
29184SOL    HW191346   9.942   1.429   6.007
29184SOL    HW291347   9.856   1.566   6.033
29185SOL     OW91348   9.565   1.348   5.876
29185SOL    HW191349   9.469   1.349   5.849
29185SOL    HW291350   9.577   1.401   5.960
29186SOL     OW91351   9.982   0.203   7.075
29186SOL    HW191352  10.072   0.187   7.035
29186SOL    HW291353   9.990   0.208   7.174
29187SOL     OW91354   9.385   0.345   5.619
29187SOL    HW191355   9.293   0.317   5.590
29187SOL    HW291356   9.416   0.422   5.563
29188SOL     OW91357   9.382   0.166   5.904
29188SOL    HW191358   9.365   0.249   5.850
29188SOL    HW291359   9.472   0.129   5.882
29189SOL     OW91360   9.923   0.842   7.017
29189SOL    HW191361   9.979   0.923   7.000
29189SOL    HW291362   9.982   0.762   7.020
29190SOL     OW91363   9.700   1.741   7.146
29190SOL    HW191364   9.609   1.782   7.144
29190SOL    HW291365   9.693   1.647   7.178
29191SOL     OW91366   9.904   0.745   6.238
29191SOL    HW191367   9.954   0.830   6.219
29191SOL    HW291368   9.816   0.747   6.190
29192SOL     OW91369   9.531   1.314   7.430
29192SOL    HW191370   9.466   1.241   7.409
29192SOL    HW291371   9.535   1.328   7.528
29193SOL     OW91372   9.389   1.240   6.239
29193SOL    HW191373   9.388   1.193   6.327
29193SOL    HW291374   9.471   1.212   6.188
29194SOL     OW91375   9.982   1.391   7.210
29194SOL    HW191376   9.904   1.341   7.248
29194SOL    HW291377   9.979   1.486   7.241
29195SOL     OW91378   9.738   0.424   6.106
29195SOL    HW191379   9.768   0.352   6.044
29195SOL    HW291380   9.699   0.384   6.189
29196SOL     OW91381   9.627   0.547   6.866
29196SOL    HW191382   9.665   0.488   6.938
29196SOL    HW291383   9.667   0.521   6.778
29197SOL     OW91384   9.349   1.077   5.886
29197SOL    HW191385   9.448   1.066   5.877
29197SOL    HW291386   9.309   0.991   5.918
29198SOL     OW91387   9.540   0.628   7.561
29198SOL    HW191388   9.447   0.626   7.598
29198SOL    HW291389   9.541   0.589   7.469
29199SOL     OW91390   9.535   0.275   8.444
29199SOL    HW191391   9.570   0.258   8.536
29199SOL    HW291392   9.447   0.230   8.432
29200SOL     OW91393   9.329   0.368   8.095
29200SOL    HW191394   9.247   0.411   8.134
29200SOL    HW291395   9.301   0.295   8.032
29201SOL     OW91396   9.879   1.275   8.613
29201SOL    HW191397   9.786   1.268   8.576
29201SOL    HW291398   9.890   1.364   8.657
29202SOL     OW91399  10.160   0.798   9.271
29202SOL    HW191400  10.156   0.874   9.336
29202SOL    HW291401  10.182   0.834   9.180
29203SOL     OW91402   9.645   1.435   8.509
29203SOL    HW191403   9.567   1.404   8.456
29203SOL    HW291404   9.703   1.493   8.452
29204SOL     OW91405   9.748   0.392   8.947
29204SOL    HW191406   9.830   0.336   8.956
29204SOL    HW291407   9.667   0.334   8.951
29205SOL     OW91408   9.541   1.713   7.931
29205SOL    HW191409   9.575   1.790   7.985
29205SOL    HW291410   9.585   1.713   7.841
29206SOL     OW91411   9.540   1.434   7.986
29206SOL    HW191412   9.514   1.530   7.986
29206SOL    HW291413   9.469   1.380   8.031
29207SOL     OW91414   9.550   1.091   8.334
29207SOL    HW191415   9.564   1.007   8.386
29207SOL    HW291416   9.495   1.155   8.389
29208SOL     OW91417   9.432   0.643   8.011
29208SOL    HW191418   9.387   0.555   8.028
29208SOL    HW291419   9.431   0.697   8.095
29209SOL     OW91420   9.337   1.596   7.565
29209SOL    HW191421   9.318   1.500   7.586
29209SOL    HW291422   9.304   1.654   7.640
29210SOL     OW91423   9.423   0.737   9.045
29210SOL    HW191424   9.511   0.724   9.090
29210SOL    HW291425   9.410   0.834   9.023
29211SOL     OW91426   9.923   1.365   8.174
29211SOL    HW191427   9.874   1.278   8.183
29211SOL    HW291428   9.900   1.408   8.087
29212SOL     OW91429   9.507   0.976   8.712
29212SOL    HW191430   9.596   0.931   8.698
29212SOL    HW291431   9.434   0.911   8.693
29213SOL     OW91432   9.627   0.251   9.249
29213SOL    HW191433   9.698   0.322   9.255
29213SOL    HW291434   9.539   0.290   9.277
29214SOL     OW91435   9.908   0.729   7.718
29214SOL    HW191436   9.932   0.798   7.650
29214SOL    HW291437   9.830   0.762   7.772
29215SOL     OW91438   9.386   0.811   8.237
29215SOL    HW191439   9.485   0.799   8.246
29215SOL    HW291440   9.362   0.906   8.258
29216SOL     OW91441   9.440   1.821   9.019
29216SOL    HW191442   9.430   1.806   9.118
29216SOL    HW291443   9.354   1.857   8.983
29217SOL     OW91444  10.175   0.348   7.643
29217SOL    HW191445  10.234   0.411   7.594
29217SOL    HW291446  10.194   0.254   7.614
29218SOL     OW91447   9.860   0.196   8.333
29218SOL    HW191448   9.855   0.191   8.433
29218SOL    HW291449   9.862   0.292   8.304
29219SOL     OW91450   9.661   1.801   8.301
29219SOL    HW191451   9.711   1.715   8.307
29219SOL    HW291452   9.726   1.878   8.298
29220SOL     OW91453   9.771   1.266   9.175
29220SOL    HW191454   9.721   1.267   9.089
29220SOL    HW291455   9.708   1.248   9.251
29221SOL     OW91456   9.512   0.285   8.946
29221SOL    HW191457   9.432   0.345   8.933
29221SOL    HW291458   9.502   0.236   9.032
29222SOL     OW91459   9.774   1.743   7.771
29222SOL    HW191460   9.807   1.782   7.857
29222SOL    HW291461   9.850   1.736   7.706
29223SOL     OW91462   9.559   1.785   8.689
29223SOL    HW191463   9.616   1.720   8.739
29223SOL    HW291464   9.543   1.752   8.596
29224SOL     OW91465   9.692   0.700   7.928
29224SOL    HW191466   9.737   0.610   7.925
29224SOL    HW291467   9.598   0.689   7.961
29225SOL     OW91468   9.924   0.122   7.565
29225SOL    HW191469  10.022   0.100   7.572
29225SOL    HW291470   9.893   0.105   7.472
29226SOL     OW91471  10.113   1.402   8.372
29226SOL    HW191472  10.203   1.416   8.330
29226SOL    HW291473  10.042   1.404   8.301
29227SOL     OW91474   9.849   0.064   7.960
29227SOL    HW191475   9.768   0.065   8.018
29227SOL    HW291476   9.852   0.147   7.905
29228SOL     OW91477   9.607   0.035   7.619
29228SOL    HW191478   9.656   0.119   7.598
29228SOL    HW291479   9.669  -0.030   7.664
29229SOL     OW91480  10.245   0.236   7.928
29229SOL    HW191481  10.197   0.277   7.850
29229SOL    HW291482  10.344   0.234   7.909
29230SOL     OW91483   9.769   1.152   8.189
29230SOL    HW191484   9.698   1.125   8.254
29230SOL    HW291485   9.743   1.124   8.096
29231SOL     OW91486   9.388   0.556   8.834
29231SOL    HW191487   9.480   0.555   8.793
29231SOL    HW291488   9.382   0.630   8.901
29232SOL     OW91489   9.871   0.222   8.595
29232SOL    HW191490   9.909   0.138   8.632
29232SOL    HW291491   9.783   0.241   8.639
29233SOL     OW91492   9.837   0.256   7.776
29233SOL    HW191493   9.864   0.197   7.701
29233SOL    HW291494   9.837   0.351   7.745
29234SOL     OW91495   9.720   0.813   8.699
29234SOL    HW191496   9.806   0.825   8.749
29234SOL    HW291497   9.678   0.726   8.726
29235SOL     OW91498   9.374   1.564   8.779
29235SOL    HW191499   9.328   1.646   8.745
29235SOL    HW291500   9.472   1.583   8.788
29236SOL     OW91501   9.677   1.100   7.949
29236SOL    HW191502   9.670   1.183   7.893
29236SOL    HW291503   9.681   1.020   7.889
29237SOL     OW91504   9.876   0.537   8.313
29237SOL    HW191505   9.888   0.603   8.239
29237SOL    HW291506   9.922   0.571   8.396
29238SOL     OW91507   9.664   1.510   8.777
29238SOL    HW191508   9.643   1.466   8.690
29238SOL    HW291509   9.761   1.536   8.780
29239SOL     OW91510   9.712   0.751   9.046
29239SOL    HW191511   9.780   0.806   8.999
29239SOL    HW291512   9.752   0.663   9.073
29240SOL     OW91513   9.814   0.050   9.188
29240SOL    HW191514   9.772  -0.007   9.118
29240SOL    HW291515   9.748   0.119   9.220
29241SOL     OW91516   9.883   0.870   8.477
29241SOL    HW191517   9.927   0.959   8.468
29241SOL    HW291518   9.820   0.870   8.554
29242SOL     OW91519   9.617   0.213   8.679
29242SOL    HW191520   9.594   0.250   8.769
29242SOL    HW291521   9.587   0.118   8.673
29243SOL     OW91522   9.347   1.310   8.730
29243SOL    HW191523   9.400   1.261   8.798
29243SOL    HW291524   9.369   1.408   8.735
29244SOL     OW91525   9.617   0.063   8.066
29244SOL    HW191526   9.606   0.157   8.099
29244SOL    HW291527   9.612   0.000   8.143
29245SOL     OW91528   9.660   0.898   9.252
29245SOL    HW191529   9.736   0.942   9.300
29245SOL    HW291530   9.695   0.851   9.170
29246SOL     OW91531   9.629   0.810   8.397
29246SOL    HW191532   9.722   0.846   8.402
29246SOL    HW291533   9.623   0.725   8.449
29247SOL     OW91534   9.649   0.509   8.454
29247SOL    HW191535   9.597   0.426   8.437
29247SOL    HW291536   9.726   0.514   8.390
29248SOL     OW91537   9.318   1.326   7.648
29248SOL    HW191538   9.225   1.347   7.617
29248SOL    HW291539   9.328   1.227   7.661
29249SOL     OW91540   9.398   1.801   8.375
29249SOL    HW191541   9.356   1.715   8.348
29249SOL    HW291542   9.492   1.804   8.341
29250SOL     OW91543   9.814   1.568   8.358
29250SOL    HW191544   9.880   1.642   8.367
29250SOL    HW291545   9.858   1.489   8.316
29251SOL     OW91546   9.350   0.544   8.562
29251SOL    HW191547   9.435   0.511   8.521
29251SOL    HW291548   9.363   0.559   8.660
29252SOL     OW91549   9.499   0.520   9.170
29252SOL    HW191550   9.558   0.480   9.100
29252SOL    HW291551   9.441   0.591   9.129
29253SOL     OW91552  10.125   0.572   7.773
29253SOL    HW191553  10.132   0.483   7.727
29253SOL    HW291554  10.031   0.606   7.765
29254SOL     OW91555   9.562   1.564   9.192
29254SOL    HW191556   9.532   1.621   9.268
29254SOL    HW291557   9.555   1.467   9.218
29255SOL     OW91558   9.783   0.500   7.639
29255SOL    HW191559   9.844   0.580   7.643
29255SOL    HW291560   9.688   0.531   7.646
29256SOL     OW91561   9.469   1.137   8.914
29256SOL    HW191562   9.491   1.076   8.990
29256SOL    HW291563   9.479   1.088   8.828
29257SOL     OW91564   9.393   1.258   8.470
29257SOL    HW191565   9.388   1.257   8.570
29257SOL    HW291566   9.310   1.217   8.432
29258SOL     OW91567   9.998   1.662   9.164
29258SOL    HW191568   9.942   1.743   9.173
29258SOL    HW291569  10.050   1.666   9.078
29259SOL     OW91570   9.440   1.794   9.299
29259SOL    HW191571   9.399   1.720   9.352
29259SOL    HW291572   9.504   1.845   9.357
29260SOL     OW91573   9.573   0.326   8.168
29260SOL    HW191574   9.494   0.377   8.134
29260SOL    HW291575   9.564   0.311   8.266
29261SOL     OW91576   9.682   1.288   8.938
29261SOL    HW191577   9.669   1.381   8.904
29261SOL    HW291578   9.598   1.236   8.925
29262SOL     OW91579   9.900   1.487   7.939
29262SOL    HW191580   9.942   1.429   7.869
29262SOL    HW291581   9.856   1.566   7.895
29263SOL     OW91582   9.565   1.348   7.738
29263SOL    HW191583   9.469   1.349   7.711
29263SOL    HW291584   9.577   1.401   7.822
29264SOL     OW91585   9.415   1.013   9.174
29264SOL    HW191586   9.338   0.980   9.228
29264SOL    HW291587   9.500   0.983   9.216
29265SOL     OW91588   9.982   0.203   8.937
29265SOL    HW191589  10.072   0.187   8.897
29265SOL    HW291590   9.990   0.208   9.036
29266SOL     OW91591   9.385   0.345   7.481
29266SOL    HW191592   9.293   0.317   7.452
29266SOL    HW291593   9.416   0.422   7.425
29267SOL     OW91594   9.382   0.166   7.766
29267SOL    HW191595   9.365   0.249   7.712
29267SOL    HW291596   9.472   0.129   7.744
29268SOL     OW91597   9.923   0.842   8.879
29268SOL    HW191598   9.979   0.923   8.862
29268SOL    HW291599   9.982   0.762   8.882
29269SOL     OW91600   9.700   1.741   9.008
29269SOL    HW191601   9.609   1.782   9.006
29269SOL    HW291602   9.693   1.647   9.040
29270SOL     OW91603   9.904   0.745   8.100
29270SOL    HW191604   9.954   0.830   8.081
29270SOL    HW291605   9.816   0.747   8.052
29271SOL     OW91606   9.531   1.314   9.292
29271SOL    HW191607   9.466   1.241   9.271
29271SOL    HW291608   9.535   1.328   9.390
29272SOL     OW91609   9.389   1.240   8.101
29272SOL    HW191610   9.388   1.193   8.189
29272SOL    HW291611   9.471   1.212   8.050
29273SOL     OW91612   9.982   1.391   9.072
29273SOL    HW191613   9.904   1.341   9.110
29273SOL    HW291614   9.979   1.486   9.103
29274SOL     OW91615   9.738   0.424   7.968
29274SOL    HW191616   9.768   0.352   7.906
29274SOL    HW291617   9.699   0.384   8.051
29275SOL     OW91618   9.627   0.547   8.728
29275SOL    HW191619   9.665   0.488   8.800
29275SOL    HW291620   9.667   0.521   8.640
29276SOL     OW91621   9.349   1.077   7.748
29276SOL    HW191622   9.448   1.066   7.739
29276SOL    HW291623   9.309   0.991   7.780
29277SOL     OW91624   9.540   0.628   9.423
29277SOL    HW191625   9.447   0.626   9.460
29277SOL    HW291626   9.541   0.589   9.331
29278SOL     OW91627   9.541   1.713   9.793
29278SOL    HW191628   9.575   1.790   9.847
29278SOL    HW291629   9.585   1.713   9.703
29279SOL     OW91630   9.540   1.434   9.848
29279SOL    HW191631   9.514   1.530   9.848
29279SOL    HW291632   9.469   1.380   9.893
29280SOL     OW91633   9.432   0.643   9.873
29280SOL    HW191634   9.387   0.555   9.890
29280SOL    HW291635   9.431   0.697   9.957
29281SOL     OW91636   9.337   1.596   9.427
29281SOL    HW191637   9.318   1.500   9.448
29281SOL    HW291638   9.304   1.654   9.502
29282SOL     OW91639   9.908   0.729   9.580
29282SOL    HW191640   9.932   0.798   9.512
29282SOL    HW291641   9.830   0.762   9.634
29283SOL     OW91642   9.386   0.811  10.099
29283SOL    HW191643   9.485   0.799  10.108
29283SOL    HW291644   9.362   0.906  10.120
29284SOL     OW91645  10.175   0.348   9.505
29284SOL    HW191646  10.234   0.411   9.456
29284SOL    HW291647  10.194   0.254   9.476
29285SOL     OW91648   9.631   0.943   9.552
29285SOL    HW191649   9.713   0.982   9.510
29285SOL    HW291650   9.604   0.861   9.503
29286SOL     OW91651   9.774   1.743   9.633
29286SOL    HW191652   9.807   1.782   9.719
29286SOL    HW291653   9.850   1.736   9.568
29287SOL     OW91654   9.692   0.700   9.790
29287SOL    HW191655   9.737   0.610   9.787
29287SOL    HW291656   9.598   0.689   9.823
29288SOL     OW91657   9.924   0.122   9.427
29288SOL    HW191658  10.022   0.100   9.434
29288SOL    HW291659   9.893   0.105   9.334
29289SOL     OW91660   9.849   0.064   9.822
29289SOL    HW191661   9.768   0.065   9.880
29289SOL    HW291662   9.852   0.147   9.767
29290SOL     OW91663   9.607   0.035   9.481
29290SOL    HW191664   9.656   0.119   9.460
29290SOL    HW291665   9.669  -0.030   9.526
29291SOL     OW91666   9.769   1.152  10.051
29291SOL    HW191667   9.698   1.125  10.116
29291SOL    HW291668   9.743   1.124   9.958
29292SOL     OW91669   9.837   0.256   9.638
29292SOL    HW191670   9.864   0.197   9.563
29292SOL    HW291671   9.837   0.351   9.607
29293SOL     OW91672   9.677   1.100   9.811
29293SOL    HW191673   9.670   1.183   9.755
29293SOL    HW291674   9.681   1.020   9.751
29294SOL     OW91675   9.617   0.063   9.928
29294SOL    HW191676   9.606   0.157   9.961
29294SOL    HW291677   9.612   0.000  10.005
29295SOL     OW91678   9.318   1.326   9.510
29295SOL    HW191679   9.225   1.347   9.479
29295SOL    HW291680   9.328   1.227   9.523
29296SOL     OW91681  10.125   0.572   9.635
29296SOL    HW191682  10.132   0.483   9.589
29296SOL    HW291683  10.031   0.606   9.627
29297SOL     OW91684   9.783   0.500   9.501
29297SOL    HW191685   9.844   0.580   9.505
29297SOL    HW291686   9.688   0.531   9.508
29298SOL     OW91687   9.900   1.487   9.801
29298SOL    HW191688   9.942   1.429   9.731
29298SOL    HW291689   9.856   1.566   9.757
29299SOL     OW91690   9.565   1.348   9.600
29299SOL    HW191691   9.469   1.349   9.573
29299SOL    HW291692   9.577   1.401   9.684
29300SOL     OW91693   9.385   0.345   9.343
29300SOL    HW191694   9.293   0.317   9.314
29300SOL    HW291695   9.416   0.422   9.287
29301SOL     OW91696   9.382   0.166   9.628
29301SOL    HW191697   9.365   0.249   9.574
29301SOL    HW291698   9.472   0.129   9.606
29302SOL     OW91699   9.904   0.745   9.962
29302SOL    HW191700   9.954   0.830   9.943
29302SOL    HW291701   9.816   0.747   9.914
29303SOL     OW91702   9.389   1.240   9.963
29303SOL    HW191703   9.388   1.193  10.051
29303SOL    HW291704   9.471   1.212   9.912
29304SOL     OW91705   9.738   0.424   9.830
29304SOL    HW191706   9.768   0.352   9.768
29304SOL    HW291707   9.699   0.384   9.913
29305SOL     OW91708   9.349   1.077   9.610
29305SOL    HW191709   9.448   1.066   9.601
29305SOL    HW291710   9.309   0.991   9.642
29306SOL     OW91711   9.540   2.490   0.113
29306SOL    HW191712   9.447   2.488   0.150
29306SOL    HW291713   9.541   2.451   0.021
29307SOL     OW91714   9.535   2.137   0.996
29307SOL    HW191715   9.570   2.120   1.088
29307SOL    HW291716   9.447   2.092   0.984
29308SOL     OW91717   9.329   2.230   0.647
29308SOL    HW191718   9.247   2.273   0.686
29308SOL    HW291719   9.301   2.157   0.584
29309SOL     OW91720   9.879   3.137   1.165
29309SOL    HW191721   9.786   3.130   1.128
29309SOL    HW291722   9.890   3.226   1.209
29310SOL     OW91723  10.160   2.660   1.823
29310SOL    HW191724  10.156   2.736   1.888
29310SOL    HW291725  10.182   2.696   1.732
29311SOL     OW91726   9.645   3.297   1.061
29311SOL    HW191727   9.567   3.266   1.008
29311SOL    HW291728   9.703   3.355   1.004
29312SOL     OW91729   9.748   2.254   1.499
29312SOL    HW191730   9.830   2.198   1.508
29312SOL    HW291731   9.667   2.196   1.503
29313SOL     OW91732   9.541   3.575   0.483
29313SOL    HW191733   9.575   3.652   0.537
29313SOL    HW291734   9.585   3.575   0.393
29314SOL     OW91735   9.540   3.296   0.538
29314SOL    HW191736   9.514   3.392   0.538
29314SOL    HW291737   9.469   3.242   0.583
29315SOL     OW91738   9.550   2.953   0.886
29315SOL    HW191739   9.564   2.869   0.938
29315SOL    HW291740   9.495   3.017   0.941
29316SOL     OW91741   9.432   2.505   0.563
29316SOL    HW191742   9.387   2.417   0.580
29316SOL    HW291743   9.431   2.559   0.647
29317SOL     OW91744   9.337   3.458   0.117
29317SOL    HW191745   9.318   3.362   0.138
29317SOL    HW291746   9.304   3.516   0.192
29318SOL     OW91747   9.423   2.599   1.597
29318SOL    HW191748   9.511   2.586   1.642
29318SOL    HW291749   9.410   2.696   1.575
29319SOL     OW91750   9.923   3.227   0.726
29319SOL    HW191751   9.874   3.140   0.735
29319SOL    HW291752   9.900   3.270   0.639
29320SOL     OW91753   9.507   2.838   1.264
29320SOL    HW191754   9.596   2.793   1.250
29320SOL    HW291755   9.434   2.773   1.245
29321SOL     OW91756   9.627   2.113   1.801
29321SOL    HW191757   9.698   2.184   1.807
29321SOL    HW291758   9.539   2.152   1.829
29322SOL     OW91759   9.908   2.591   0.270
29322SOL    HW191760   9.932   2.660   0.202
29322SOL    HW291761   9.830   2.624   0.324
29323SOL     OW91762   9.386   2.673   0.789
29323SOL    HW191763   9.485   2.661   0.798
29323SOL    HW291764   9.362   2.768   0.810
29324SOL     OW91765   9.440   3.683   1.571
29324SOL    HW191766   9.430   3.668   1.670
29324SOL    HW291767   9.354   3.719   1.535
29325SOL     OW91768   9.860   2.058   0.885
29325SOL    HW191769   9.855   2.053   0.985
29325SOL    HW291770   9.862   2.154   0.856
29326SOL     OW91771   9.661   3.663   0.853
29326SOL    HW191772   9.711   3.577   0.859
29326SOL    HW291773   9.726   3.740   0.850
29327SOL     OW91774   9.631   2.805   0.242
29327SOL    HW191775   9.713   2.844   0.200
29327SOL    HW291776   9.604   2.723   0.193
29328SOL     OW91777   9.771   3.128   1.727
29328SOL    HW191778   9.721   3.129   1.641
29328SOL    HW291779   9.708   3.110   1.803
29329SOL     OW91780   9.512   2.147   1.498
29329SOL    HW191781   9.432   2.207   1.485
29329SOL    HW291782   9.502   2.098   1.584
29330SOL     OW91783   9.774   3.605   0.323
29330SOL    HW191784   9.807   3.644   0.409
29330SOL    HW291785   9.850   3.598   0.258
29331SOL     OW91786   9.559   3.647   1.241
29331SOL    HW191787   9.616   3.582   1.291
29331SOL    HW291788   9.543   3.614   1.148
29332SOL     OW91789   9.692   2.562   0.480
29332SOL    HW191790   9.737   2.472   0.477
29332SOL    HW291791   9.598   2.551   0.513
29333SOL     OW91792  10.113   3.264   0.924
29333SOL    HW191793  10.203   3.278   0.882
29333SOL    HW291794  10.042   3.266   0.853
29334SOL     OW91795   9.769   3.014   0.741
29334SOL    HW191796   9.698   2.987   0.806
29334SOL    HW291797   9.743   2.986   0.648
29335SOL     OW91798   9.388   2.418   1.386
29335SOL    HW191799   9.480   2.417   1.345
29335SOL    HW291800   9.382   2.492   1.453
29336SOL     OW91801   9.871   2.084   1.147
29336SOL    HW191802   9.909   2.000   1.184
29336SOL    HW291803   9.783   2.103   1.191
29337SOL     OW91804   9.720   2.675   1.251
29337SOL    HW191805   9.806   2.687   1.301
29337SOL    HW291806   9.678   2.588   1.278
29338SOL     OW91807   9.374   3.426   1.331
29338SOL    HW191808   9.328   3.508   1.297
29338SOL    HW291809   9.472   3.445   1.340
29339SOL     OW91810   9.677   2.962   0.501
29339SOL    HW191811   9.670   3.045   0.445
29339SOL    HW291812   9.681   2.882   0.441
29340SOL     OW91813   9.876   2.399   0.865
29340SOL    HW191814   9.888   2.465   0.791
29340SOL    HW291815   9.922   2.433   0.948
29341SOL     OW91816   9.712   2.613   1.598
29341SOL    HW191817   9.780   2.668   1.551
29341SOL    HW291818   9.752   2.525   1.625
29342SOL     OW91819   9.814   1.912   1.740
29342SOL    HW191820   9.772   1.855   1.670
29342SOL    HW291821   9.748   1.981   1.772
29343SOL     OW91822   9.883   2.732   1.029
29343SOL    HW191823   9.927   2.821   1.020
29343SOL    HW291824   9.820   2.732   1.106
29344SOL     OW91825   9.617   2.075   1.231
29344SOL    HW191826   9.594   2.112   1.321
29344SOL    HW291827   9.587   1.980   1.225
29345SOL     OW91828   9.347   3.172   1.282
29345SOL    HW191829   9.400   3.123   1.350
29345SOL    HW291830   9.369   3.270   1.287
29346SOL     OW91831   9.660   2.760   1.804
29346SOL    HW191832   9.736   2.804   1.852
29346SOL    HW291833   9.695   2.713   1.722
29347SOL     OW91834   9.629   2.672   0.949
29347SOL    HW191835   9.722   2.708   0.954
29347SOL    HW291836   9.623   2.587   1.001
29348SOL     OW91837   9.649   2.371   1.006
29348SOL    HW191838   9.597   2.288   0.989
29348SOL    HW291839   9.726   2.376   0.942
29349SOL     OW91840   9.318   3.188   0.200
29349SOL    HW191841   9.225   3.209   0.169
29349SOL    HW291842   9.328   3.089   0.213
29350SOL     OW91843   9.398   3.663   0.927
29350SOL    HW191844   9.356   3.577   0.900
29350SOL    HW291845   9.492   3.666   0.893
29351SOL     OW91846   9.814   3.430   0.910
29351SOL    HW191847   9.880   3.504   0.919
29351SOL    HW291848   9.858   3.351   0.868
29352SOL     OW91849   9.350   2.406   1.114
29352SOL    HW191850   9.435   2.373   1.073
29352SOL    HW291851   9.363   2.421   1.212
29353SOL     OW91852   9.499   2.382   1.722
29353SOL    HW191853   9.558   2.342   1.652
29353SOL    HW291854   9.441   2.453   1.681
29354SOL     OW91855  10.125   2.434   0.325
29354SOL    HW191856  10.132   2.345   0.279
29354SOL    HW291857  10.031   2.468   0.317
29355SOL     OW91858   9.562   3.426   1.744
29355SOL    HW191859   9.532   3.483   1.820
29355SOL    HW291860   9.555   3.329   1.770
29356SOL     OW91861   9.783   2.362   0.191
29356SOL    HW191862   9.844   2.442   0.195
29356SOL    HW291863   9.688   2.393   0.198
29357SOL     OW91864   9.469   2.999   1.466
29357SOL    HW191865   9.491   2.938   1.542
29357SOL    HW291866   9.479   2.950   1.380
29358SOL     OW91867   9.393   3.120   1.022
29358SOL    HW191868   9.388   3.119   1.122
29358SOL    HW291869   9.310   3.079   0.984
29359SOL     OW91870   9.440   3.656   1.851
29359SOL    HW191871   9.399   3.582   1.904
29359SOL    HW291872   9.504   3.707   1.909
29360SOL     OW91873   9.573   2.188   0.720
29360SOL    HW191874   9.494   2.239   0.686
29360SOL    HW291875   9.564   2.173   0.818
29361SOL     OW91876   9.682   3.150   1.490
29361SOL    HW191877   9.669   3.243   1.456
29361SOL    HW291878   9.598   3.098   1.477
29362SOL     OW91879   9.900   3.349   0.491
29362SOL    HW191880   9.942   3.291   0.421
29362SOL    HW291881   9.856   3.428   0.447
29363SOL     OW91882   9.565   3.210   0.290
29363SOL    HW191883   9.469   3.211   0.263
29363SOL    HW291884   9.577   3.263   0.374
29364SOL     OW91885   9.415   2.875   1.726
29364SOL    HW191886   9.338   2.842   1.780
29364SOL    HW291887   9.500   2.845   1.768
29365SOL     OW91888   9.982   2.065   1.489
29365SOL    HW191889  10.072   2.049   1.449
29365SOL    HW291890   9.990   2.070   1.588
29366SOL     OW91891   9.385   2.207   0.033
29366SOL    HW191892   9.293   2.179   0.004
29366SOL    HW291893   9.416   2.284  -0.023
29367SOL     OW91894   9.382   2.028   0.318
29367SOL    HW191895   9.365   2.111   0.264
29367SOL    HW291896   9.472   1.991   0.296
29368SOL     OW91897   9.923   2.704   1.431
29368SOL    HW191898   9.979   2.785   1.414
29368SOL    HW291899   9.982   2.624   1.434
29369SOL     OW91900   9.904   2.607   0.652
29369SOL    HW191901   9.954   2.692   0.633
29369SOL    HW291902   9.816   2.609   0.604
29370SOL     OW91903   9.531   3.176   1.844
29370SOL    HW191904   9.466   3.103   1.823
29370SOL    HW291905   9.535   3.190   1.942
29371SOL     OW91906   9.389   3.102   0.653
29371SOL    HW191907   9.388   3.055   0.741
29371SOL    HW291908   9.471   3.074   0.602
29372SOL     OW91909   9.982   3.253   1.624
29372SOL    HW191910   9.904   3.203   1.662
29372SOL    HW291911   9.979   3.348   1.655
29373SOL     OW91912   9.738   2.286   0.520
29373SOL    HW191913   9.768   2.214   0.458
29373SOL    HW291914   9.699   2.246   0.603
29374SOL     OW91915   9.627   2.409   1.280
29374SOL    HW191916   9.665   2.350   1.352
29374SOL    HW291917   9.667   2.383   1.192
29375SOL     OW91918   9.349   2.939   0.300
29375SOL    HW191919   9.448   2.928   0.291
29375SOL    HW291920   9.309   2.853   0.332
29376SOL     OW91921   9.540   2.490   1.975
29376SOL    HW191922   9.447   2.488   2.012
29376SOL    HW291923   9.541   2.451   1.883
29377SOL     OW91924   9.535   2.137   2.858
29377SOL    HW191925   9.570   2.120   2.950
29377SOL    HW291926   9.447   2.092   2.846
29378SOL     OW91927   9.329   2.230   2.509
29378SOL    HW191928   9.247   2.273   2.548
29378SOL    HW291929   9.301   2.157   2.446
29379SOL     OW91930   9.879   3.137   3.027
29379SOL    HW191931   9.786   3.130   2.990
29379SOL    HW291932   9.890   3.226   3.071
29380SOL     OW91933  10.160   2.660   3.685
29380SOL    HW191934  10.156   2.736   3.750
29380SOL    HW291935  10.182   2.696   3.594
29381SOL     OW91936   9.645   3.297   2.923
29381SOL    HW191937   9.567   3.266   2.870
29381SOL    HW291938   9.703   3.355   2.866
29382SOL     OW91939   9.541   3.575   2.345
29382SOL    HW191940   9.575   3.652   2.399
29382SOL    HW291941   9.585   3.575   2.255
29383SOL     OW91942   9.540   3.296   2.400
29383SOL    HW191943   9.514   3.392   2.400
29383SOL    HW291944   9.469   3.242   2.445
29384SOL     OW91945   9.550   2.953   2.748
29384SOL    HW191946   9.564   2.869   2.800
29384SOL    HW291947   9.495   3.017   2.803
29385SOL     OW91948   9.432   2.505   2.425
29385SOL    HW191949   9.387   2.417   2.442
29385SOL    HW291950   9.431   2.559   2.509
29386SOL     OW91951   9.337   3.458   1.979
29386SOL    HW191952   9.318   3.362   2.000
29386SOL    HW291953   9.304   3.516   2.054
29387SOL     OW91954   9.423   2.599   3.459
29387SOL    HW191955   9.511   2.586   3.504
29387SOL    HW291956   9.410   2.696   3.437
29388SOL     OW91957   9.923   3.227   2.588
29388SOL    HW191958   9.874   3.140   2.597
29388SOL    HW291959   9.900   3.270   2.501
29389SOL     OW91960  10.119   1.866   2.364
29389SOL    HW191961  10.159   1.957   2.355
29389SOL    HW291962  10.019   1.874   2.370
29390SOL     OW91963   9.507   2.838   3.126
29390SOL    HW191964   9.596   2.793   3.112
29390SOL    HW291965   9.434   2.773   3.107
29391SOL     OW91966   9.627   2.113   3.663
29391SOL    HW191967   9.698   2.184   3.669
29391SOL    HW291968   9.539   2.152   3.691
29392SOL     OW91969   9.908   2.591   2.132
29392SOL    HW191970   9.932   2.660   2.064
29392SOL    HW291971   9.830   2.624   2.186
29393SOL     OW91972   9.386   2.673   2.651
29393SOL    HW191973   9.485   2.661   2.660
29393SOL    HW291974   9.362   2.768   2.672
29394SOL     OW91975   9.440   3.683   3.433
29394SOL    HW191976   9.430   3.668   3.532
29394SOL    HW291977   9.354   3.719   3.397
29395SOL     OW91978  10.175   2.210   2.057
29395SOL    HW191979  10.234   2.273   2.008
29395SOL    HW291980  10.194   2.116   2.028
29396SOL     OW91981   9.860   2.058   2.747
29396SOL    HW191982   9.855   2.053   2.847
29396SOL    HW291983   9.862   2.154   2.718
29397SOL     OW91984   9.661   3.663   2.715
29397SOL    HW191985   9.711   3.577   2.721
29397SOL    HW291986   9.726   3.740   2.712
29398SOL     OW91987   9.631   2.805   2.104
29398SOL    HW191988   9.713   2.844   2.062
29398SOL    HW291989   9.604   2.723   2.055
29399SOL     OW91990   9.771   3.128   3.589
29399SOL    HW191991   9.721   3.129   3.503
29399SOL    HW291992   9.708   3.110   3.665
29400SOL     OW91993   9.512   2.147   3.360
29400SOL    HW191994   9.432   2.207   3.347
29400SOL    HW291995   9.502   2.098   3.446
29401SOL     OW91996   9.774   3.605   2.185
29401SOL    HW191997   9.807   3.644   2.271
29401SOL    HW291998   9.850   3.598   2.120
29402SOL     OW91999   9.559   3.647   3.103
29402SOL    HW192000   9.616   3.582   3.153
29402SOL    HW292001   9.543   3.614   3.010
29403SOL     OW92002   9.692   2.562   2.342
29403SOL    HW192003   9.737   2.472   2.339
29403SOL    HW292004   9.598   2.551   2.375
29404SOL     OW92005   9.924   1.984   1.979
29404SOL    HW192006  10.022   1.962   1.986
29404SOL    HW292007   9.893   1.967   1.886
29405SOL     OW92008  10.113   3.264   2.786
29405SOL    HW192009  10.203   3.278   2.744
29405SOL    HW292010  10.042   3.266   2.715
29406SOL     OW92011   9.849   1.926   2.374
29406SOL    HW192012   9.768   1.927   2.432
29406SOL    HW292013   9.852   2.009   2.319
29407SOL     OW92014   9.607   1.897   2.033
29407SOL    HW192015   9.656   1.981   2.012
29407SOL    HW292016   9.669   1.832   2.078
29408SOL     OW92017  10.245   2.098   2.342
29408SOL    HW192018  10.197   2.139   2.264
29408SOL    HW292019  10.344   2.096   2.323
29409SOL     OW92020   9.769   3.014   2.603
29409SOL    HW192021   9.698   2.987   2.668
29409SOL    HW292022   9.743   2.986   2.510
29410SOL     OW92023   9.388   2.418   3.248
29410SOL    HW192024   9.480   2.417   3.207
29410SOL    HW292025   9.382   2.492   3.315
29411SOL     OW92026   9.871   2.084   3.009
29411SOL    HW192027   9.909   2.000   3.046
29411SOL    HW292028   9.783   2.103   3.053
29412SOL     OW92029   9.837   2.118   2.190
29412SOL    HW192030   9.864   2.059   2.115
29412SOL    HW292031   9.837   2.213   2.159
29413SOL     OW92032   9.720   2.675   3.113
29413SOL    HW192033   9.806   2.687   3.163
29413SOL    HW292034   9.678   2.588   3.140
29414SOL     OW92035   9.374   3.426   3.193
29414SOL    HW192036   9.328   3.508   3.159
29414SOL    HW292037   9.472   3.445   3.202
29415SOL     OW92038   9.677   2.962   2.363
29415SOL    HW192039   9.670   3.045   2.307
29415SOL    HW292040   9.681   2.882   2.303
29416SOL     OW92041   9.876   2.399   2.727
29416SOL    HW192042   9.888   2.465   2.653
29416SOL    HW292043   9.922   2.433   2.810
29417SOL     OW92044   9.664   3.372   3.191
29417SOL    HW192045   9.643   3.328   3.104
29417SOL    HW292046   9.761   3.398   3.194
29418SOL     OW92047   9.712   2.613   3.460
29418SOL    HW192048   9.780   2.668   3.413
29418SOL    HW292049   9.752   2.525   3.487
29419SOL     OW92050   9.814   1.912   3.602
29419SOL    HW192051   9.772   1.855   3.532
29419SOL    HW292052   9.748   1.981   3.634
29420SOL     OW92053   9.883   2.732   2.891
29420SOL    HW192054   9.927   2.821   2.882
29420SOL    HW292055   9.820   2.732   2.968
29421SOL     OW92056   9.617   2.075   3.093
29421SOL    HW192057   9.594   2.112   3.183
29421SOL    HW292058   9.587   1.980   3.087
29422SOL     OW92059   9.347   3.172   3.144
29422SOL    HW192060   9.400   3.123   3.212
29422SOL    HW292061   9.369   3.270   3.149
29423SOL     OW92062   9.617   1.925   2.480
29423SOL    HW192063   9.606   2.019   2.513
29423SOL    HW292064   9.612   1.862   2.557
29424SOL     OW92065   9.660   2.760   3.666
29424SOL    HW192066   9.736   2.804   3.714
29424SOL    HW292067   9.695   2.713   3.584
29425SOL     OW92068   9.629   2.672   2.811
29425SOL    HW192069   9.722   2.708   2.816
29425SOL    HW292070   9.623   2.587   2.863
29426SOL     OW92071   9.649   2.371   2.868
29426SOL    HW192072   9.597   2.288   2.851
29426SOL    HW292073   9.726   2.376   2.804
29427SOL     OW92074   9.318   3.188   2.062
29427SOL    HW192075   9.225   3.209   2.031
29427SOL    HW292076   9.328   3.089   2.075
29428SOL     OW92077   9.398   3.663   2.789
29428SOL    HW192078   9.356   3.577   2.762
29428SOL    HW292079   9.492   3.666   2.755
29429SOL     OW92080   9.814   3.430   2.772
29429SOL    HW192081   9.880   3.504   2.781
29429SOL    HW292082   9.858   3.351   2.730
29430SOL     OW92083   9.350   2.406   2.976
29430SOL    HW192084   9.435   2.373   2.935
29430SOL    HW292085   9.363   2.421   3.074
29431SOL     OW92086   9.499   2.382   3.584
29431SOL    HW192087   9.558   2.342   3.514
29431SOL    HW292088   9.441   2.453   3.543
29432SOL     OW92089  10.125   2.434   2.187
29432SOL    HW192090  10.132   2.345   2.141
29432SOL    HW292091  10.031   2.468   2.179
29433SOL     OW92092   9.783   2.362   2.053
29433SOL    HW192093   9.844   2.442   2.057
29433SOL    HW292094   9.688   2.393   2.060
29434SOL     OW92095   9.393   3.120   2.884
29434SOL    HW192096   9.388   3.119   2.984
29434SOL    HW292097   9.310   3.079   2.846
29435SOL     OW92098   9.998   3.524   3.578
29435SOL    HW192099   9.942   3.605   3.587
29435SOL    HW292100  10.050   3.528   3.492
29436SOL     OW92101   9.440   3.656   3.713
29436SOL    HW192102   9.399   3.582   3.766
29436SOL    HW292103   9.504   3.707   3.771
29437SOL     OW92104   9.573   2.188   2.582
29437SOL    HW192105   9.494   2.239   2.548
29437SOL    HW292106   9.564   2.173   2.680
29438SOL     OW92107   9.682   3.150   3.352
29438SOL    HW192108   9.669   3.243   3.318
29438SOL    HW292109   9.598   3.098   3.339
29439SOL     OW92110   9.900   3.349   2.353
29439SOL    HW192111   9.942   3.291   2.283
29439SOL    HW292112   9.856   3.428   2.309
29440SOL     OW92113   9.565   3.210   2.152
29440SOL    HW192114   9.469   3.211   2.125
29440SOL    HW292115   9.577   3.263   2.236
29441SOL     OW92116   9.415   2.875   3.588
29441SOL    HW192117   9.338   2.842   3.642
29441SOL    HW292118   9.500   2.845   3.630
29442SOL     OW92119   9.385   2.207   1.895
29442SOL    HW192120   9.293   2.179   1.866
29442SOL    HW292121   9.416   2.284   1.839
29443SOL     OW92122   9.382   2.028   2.180
29443SOL    HW192123   9.365   2.111   2.126
29443SOL    HW292124   9.472   1.991   2.158
29444SOL     OW92125   9.700   3.603   3.422
29444SOL    HW192126   9.609   3.644   3.420
29444SOL    HW292127   9.693   3.509   3.454
29445SOL     OW92128   9.904   2.607   2.514
29445SOL    HW192129   9.954   2.692   2.495
29445SOL    HW292130   9.816   2.609   2.466
29446SOL     OW92131   9.389   3.102   2.515
29446SOL    HW192132   9.388   3.055   2.603
29446SOL    HW292133   9.471   3.074   2.464
29447SOL     OW92134   9.982   3.253   3.486
29447SOL    HW192135   9.904   3.203   3.524
29447SOL    HW292136   9.979   3.348   3.517
29448SOL     OW92137   9.738   2.286   2.382
29448SOL    HW192138   9.768   2.214   2.320
29448SOL    HW292139   9.699   2.246   2.465
29449SOL     OW92140   9.627   2.409   3.142
29449SOL    HW192141   9.665   2.350   3.214
29449SOL    HW292142   9.667   2.383   3.054
29450SOL     OW92143   9.349   2.939   2.162
29450SOL    HW192144   9.448   2.928   2.153
29450SOL    HW292145   9.309   2.853   2.194
29451SOL     OW92146   9.540   2.490   3.837
29451SOL    HW192147   9.447   2.488   3.874
29451SOL    HW292148   9.541   2.451   3.745
29452SOL     OW92149   9.535   2.137   4.720
29452SOL    HW192150   9.570   2.120   4.812
29452SOL    HW292151   9.447   2.092   4.708
29453SOL     OW92152   9.329   2.230   4.371
29453SOL    HW192153   9.247   2.273   4.410
29453SOL    HW292154   9.301   2.157   4.308
29454SOL     OW92155  10.160   2.660   5.547
29454SOL    HW192156  10.156   2.736   5.612
29454SOL    HW292157  10.182   2.696   5.456
29455SOL     OW92158   9.645   3.297   4.785
29455SOL    HW192159   9.567   3.266   4.732
29455SOL    HW292160   9.703   3.355   4.728
29456SOL     OW92161   9.748   2.254   5.223
29456SOL    HW192162   9.830   2.198   5.232
29456SOL    HW292163   9.667   2.196   5.227
29457SOL     OW92164   9.541   3.575   4.207
29457SOL    HW192165   9.575   3.652   4.261
29457SOL    HW292166   9.585   3.575   4.117
29458SOL     OW92167   9.540   3.296   4.262
29458SOL    HW192168   9.514   3.392   4.262
29458SOL    HW292169   9.469   3.242   4.307
29459SOL     OW92170   9.432   2.505   4.287
29459SOL    HW192171   9.387   2.417   4.304
29459SOL    HW292172   9.431   2.559   4.371
29460SOL     OW92173   9.423   2.599   5.321
29460SOL    HW192174   9.511   2.586   5.366
29460SOL    HW292175   9.410   2.696   5.299
29461SOL     OW92176   9.507   2.838   4.988
29461SOL    HW192177   9.596   2.793   4.974
29461SOL    HW292178   9.434   2.773   4.969
29462SOL     OW92179   9.627   2.113   5.525
29462SOL    HW192180   9.698   2.184   5.531
29462SOL    HW292181   9.539   2.152   5.553
29463SOL     OW92182   9.908   2.591   3.994
29463SOL    HW192183   9.932   2.660   3.926
29463SOL    HW292184   9.830   2.624   4.048
29464SOL     OW92185   9.386   2.673   4.513
29464SOL    HW192186   9.485   2.661   4.522
29464SOL    HW292187   9.362   2.768   4.534
29465SOL     OW92188   9.440   3.683   5.295
29465SOL    HW192189   9.430   3.668   5.394
29465SOL    HW292190   9.354   3.719   5.259
29466SOL     OW92191  10.175   2.210   3.919
29466SOL    HW192192  10.234   2.273   3.870
29466SOL    HW292193  10.194   2.116   3.890
29467SOL     OW92194   9.661   3.663   4.577
29467SOL    HW192195   9.711   3.577   4.583
29467SOL    HW292196   9.726   3.740   4.574
29468SOL     OW92197   9.631   2.805   3.966
29468SOL    HW192198   9.713   2.844   3.924
29468SOL    HW292199   9.604   2.723   3.917
29469SOL     OW92200   9.512   2.147   5.222
29469SOL    HW192201   9.432   2.207   5.209
29469SOL    HW292202   9.502   2.098   5.308
29470SOL     OW92203   9.774   3.605   4.047
29470SOL    HW192204   9.807   3.644   4.133
29470SOL    HW292205   9.850   3.598   3.982
29471SOL     OW92206   9.559   3.647   4.965
29471SOL    HW192207   9.616   3.582   5.015
29471SOL    HW292208   9.543   3.614   4.872
29472SOL     OW92209   9.692   2.562   4.204
29472SOL    HW192210   9.737   2.472   4.201
29472SOL    HW292211   9.598   2.551   4.237
29473SOL     OW92212   9.924   1.984   3.841
29473SOL    HW192213  10.022   1.962   3.848
29473SOL    HW292214   9.893   1.967   3.748
29474SOL     OW92215  10.113   3.264   4.648
29474SOL    HW192216  10.203   3.278   4.606
29474SOL    HW292217  10.042   3.266   4.577
29475SOL     OW92218   9.607   1.897   3.895
29475SOL    HW192219   9.656   1.981   3.874
29475SOL    HW292220   9.669   1.832   3.940
29476SOL     OW92221  10.245   2.098   4.204
29476SOL    HW192222  10.197   2.139   4.126
29476SOL    HW292223  10.344   2.096   4.185
29477SOL     OW92224   9.388   2.418   5.110
29477SOL    HW192225   9.480   2.417   5.069
29477SOL    HW292226   9.382   2.492   5.177
29478SOL     OW92227   9.871   2.084   4.871
29478SOL    HW192228   9.909   2.000   4.908
29478SOL    HW292229   9.783   2.103   4.915
29479SOL     OW92230   9.837   2.118   4.052
29479SOL    HW192231   9.864   2.059   3.977
29479SOL    HW292232   9.837   2.213   4.021
29480SOL     OW92233   9.720   2.675   4.975
29480SOL    HW192234   9.806   2.687   5.025
29480SOL    HW292235   9.678   2.588   5.002
29481SOL     OW92236   9.374   3.426   5.055
29481SOL    HW192237   9.328   3.508   5.021
29481SOL    HW292238   9.472   3.445   5.064
29482SOL     OW92239   9.876   2.399   4.589
29482SOL    HW192240   9.888   2.465   4.515
29482SOL    HW292241   9.922   2.433   4.672
29483SOL     OW92242   9.664   3.372   5.053
29483SOL    HW192243   9.643   3.328   4.966
29483SOL    HW292244   9.761   3.398   5.056
29484SOL     OW92245   9.712   2.613   5.322
29484SOL    HW192246   9.780   2.668   5.275
29484SOL    HW292247   9.752   2.525   5.349
29485SOL     OW92248   9.814   1.912   5.464
29485SOL    HW192249   9.772   1.855   5.394
29485SOL    HW292250   9.748   1.981   5.496
29486SOL     OW92251   9.883   2.732   4.753
29486SOL    HW192252   9.927   2.821   4.744
29486SOL    HW292253   9.820   2.732   4.830
29487SOL     OW92254   9.617   2.075   4.955
29487SOL    HW192255   9.594   2.112   5.045
29487SOL    HW292256   9.587   1.980   4.949
29488SOL     OW92257   9.347   3.172   5.006
29488SOL    HW192258   9.400   3.123   5.074
29488SOL    HW292259   9.369   3.270   5.011
29489SOL     OW92260   9.617   1.925   4.342
29489SOL    HW192261   9.606   2.019   4.375
29489SOL    HW292262   9.612   1.862   4.419
29490SOL     OW92263   9.629   2.672   4.673
29490SOL    HW192264   9.722   2.708   4.678
29490SOL    HW292265   9.623   2.587   4.725
29491SOL     OW92266   9.649   2.371   4.730
29491SOL    HW192267   9.597   2.288   4.713
29491SOL    HW292268   9.726   2.376   4.666
29492SOL     OW92269   9.318   3.188   3.924
29492SOL    HW192270   9.225   3.209   3.893
29492SOL    HW292271   9.328   3.089   3.937
29493SOL     OW92272   9.398   3.663   4.651
29493SOL    HW192273   9.356   3.577   4.624
29493SOL    HW292274   9.492   3.666   4.617
29494SOL     OW92275   9.814   3.430   4.634
29494SOL    HW192276   9.880   3.504   4.643
29494SOL    HW292277   9.858   3.351   4.592
29495SOL     OW92278   9.350   2.406   4.838
29495SOL    HW192279   9.435   2.373   4.797
29495SOL    HW292280   9.363   2.421   4.936
29496SOL     OW92281   9.499   2.382   5.446
29496SOL    HW192282   9.558   2.342   5.376
29496SOL    HW292283   9.441   2.453   5.405
29497SOL     OW92284  10.125   2.434   4.049
29497SOL    HW192285  10.132   2.345   4.003
29497SOL    HW292286  10.031   2.468   4.041
29498SOL     OW92287   9.562   3.426   5.468
29498SOL    HW192288   9.532   3.483   5.544
29498SOL    HW292289   9.555   3.329   5.494
29499SOL     OW92290   9.783   2.362   3.915
29499SOL    HW192291   9.844   2.442   3.919
29499SOL    HW292292   9.688   2.393   3.922
29500SOL     OW92293   9.469   2.999   5.190
29500SOL    HW192294   9.491   2.938   5.266
29500SOL    HW292295   9.479   2.950   5.104
29501SOL     OW92296   9.393   3.120   4.746
29501SOL    HW192297   9.388   3.119   4.846
29501SOL    HW292298   9.310   3.079   4.708
29502SOL     OW92299   9.998   3.524   5.440
29502SOL    HW192300   9.942   3.605   5.449
29502SOL    HW292301  10.050   3.528   5.354
29503SOL     OW92302   9.440   3.656   5.575
29503SOL    HW192303   9.399   3.582   5.628
29503SOL    HW292304   9.504   3.707   5.633
29504SOL     OW92305   9.573   2.188   4.444
29504SOL    HW192306   9.494   2.239   4.410
29504SOL    HW292307   9.564   2.173   4.542
29505SOL     OW92308   9.682   3.150   5.214
29505SOL    HW192309   9.669   3.243   5.180
29505SOL    HW292310   9.598   3.098   5.201
29506SOL     OW92311   9.900   3.349   4.215
29506SOL    HW192312   9.942   3.291   4.145
29506SOL    HW292313   9.856   3.428   4.171
29507SOL     OW92314   9.565   3.210   4.014
29507SOL    HW192315   9.469   3.211   3.987
29507SOL    HW292316   9.577   3.263   4.098
29508SOL     OW92317   9.415   2.875   5.450
29508SOL    HW192318   9.338   2.842   5.504
29508SOL    HW292319   9.500   2.845   5.492
29509SOL     OW92320   9.982   2.065   5.213
29509SOL    HW192321  10.072   2.049   5.173
29509SOL    HW292322   9.990   2.070   5.312
29510SOL     OW92323   9.385   2.207   3.757
29510SOL    HW192324   9.293   2.179   3.728
29510SOL    HW292325   9.416   2.284   3.701
29511SOL     OW92326   9.382   2.028   4.042
29511SOL    HW192327   9.365   2.111   3.988
29511SOL    HW292328   9.472   1.991   4.020
29512SOL     OW92329   9.923   2.704   5.155
29512SOL    HW192330   9.979   2.785   5.138
29512SOL    HW292331   9.982   2.624   5.158
29513SOL     OW92332   9.700   3.603   5.284
29513SOL    HW192333   9.609   3.644   5.282
29513SOL    HW292334   9.693   3.509   5.316
29514SOL     OW92335   9.904   2.607   4.376
29514SOL    HW192336   9.954   2.692   4.357
29514SOL    HW292337   9.816   2.609   4.328
29515SOL     OW92338   9.531   3.176   5.568
29515SOL    HW192339   9.466   3.103   5.547
29515SOL    HW292340   9.535   3.190   5.666
29516SOL     OW92341   9.389   3.102   4.377
29516SOL    HW192342   9.388   3.055   4.465
29516SOL    HW292343   9.471   3.074   4.326
29517SOL     OW92344   9.738   2.286   4.244
29517SOL    HW192345   9.768   2.214   4.182
29517SOL    HW292346   9.699   2.246   4.327
29518SOL     OW92347   9.627   2.409   5.004
29518SOL    HW192348   9.665   2.350   5.076
29518SOL    HW292349   9.667   2.383   4.916
29519SOL     OW92350   9.349   2.939   4.024
29519SOL    HW192351   9.448   2.928   4.015
29519SOL    HW292352   9.309   2.853   4.056
29520SOL     OW92353   9.540   2.490   5.699
29520SOL    HW192354   9.447   2.488   5.736
29520SOL    HW292355   9.541   2.451   5.607
29521SOL     OW92356   9.535   2.137   6.582
29521SOL    HW192357   9.570   2.120   6.674
29521SOL    HW292358   9.447   2.092   6.570
29522SOL     OW92359   9.329   2.230   6.233
29522SOL    HW192360   9.247   2.273   6.272
29522SOL    HW292361   9.301   2.157   6.170
29523SOL     OW92362   9.879   3.137   6.751
29523SOL    HW192363   9.786   3.130   6.714
29523SOL    HW292364   9.890   3.226   6.795
29524SOL     OW92365  10.160   2.660   7.409
29524SOL    HW192366  10.156   2.736   7.474
29524SOL    HW292367  10.182   2.696   7.318
29525SOL     OW92368   9.645   3.297   6.647
29525SOL    HW192369   9.567   3.266   6.594
29525SOL    HW292370   9.703   3.355   6.590
29526SOL     OW92371   9.748   2.254   7.085
29526SOL    HW192372   9.830   2.198   7.094
29526SOL    HW292373   9.667   2.196   7.089
29527SOL     OW92374   9.541   3.575   6.069
29527SOL    HW192375   9.575   3.652   6.123
29527SOL    HW292376   9.585   3.575   5.979
29528SOL     OW92377   9.540   3.296   6.124
29528SOL    HW192378   9.514   3.392   6.124
29528SOL    HW292379   9.469   3.242   6.169
29529SOL     OW92380   9.550   2.953   6.472
29529SOL    HW192381   9.564   2.869   6.524
29529SOL    HW292382   9.495   3.017   6.527
29530SOL     OW92383   9.432   2.505   6.149
29530SOL    HW192384   9.387   2.417   6.166
29530SOL    HW292385   9.431   2.559   6.233
29531SOL     OW92386   9.337   3.458   5.703
29531SOL    HW192387   9.318   3.362   5.724
29531SOL    HW292388   9.304   3.516   5.778
29532SOL     OW92389   9.423   2.599   7.183
29532SOL    HW192390   9.511   2.586   7.228
29532SOL    HW292391   9.410   2.696   7.161
29533SOL     OW92392   9.923   3.227   6.312
29533SOL    HW192393   9.874   3.140   6.321
29533SOL    HW292394   9.900   3.270   6.225
29534SOL     OW92395  10.119   1.866   6.088
29534SOL    HW192396  10.159   1.957   6.079
29534SOL    HW292397  10.019   1.874   6.094
29535SOL     OW92398   9.507   2.838   6.850
29535SOL    HW192399   9.596   2.793   6.836
29535SOL    HW292400   9.434   2.773   6.831
29536SOL     OW92401   9.627   2.113   7.387
29536SOL    HW192402   9.698   2.184   7.393
29536SOL    HW292403   9.539   2.152   7.415
29537SOL     OW92404   9.908   2.591   5.856
29537SOL    HW192405   9.932   2.660   5.788
29537SOL    HW292406   9.830   2.624   5.910
29538SOL     OW92407   9.386   2.673   6.375
29538SOL    HW192408   9.485   2.661   6.384
29538SOL    HW292409   9.362   2.768   6.396
29539SOL     OW92410   9.440   3.683   7.157
29539SOL    HW192411   9.430   3.668   7.256
29539SOL    HW292412   9.354   3.719   7.121
29540SOL     OW92413  10.175   2.210   5.781
29540SOL    HW192414  10.234   2.273   5.732
29540SOL    HW292415  10.194   2.116   5.752
29541SOL     OW92416   9.860   2.058   6.471
29541SOL    HW192417   9.855   2.053   6.571
29541SOL    HW292418   9.862   2.154   6.442
29542SOL     OW92419   9.661   3.663   6.439
29542SOL    HW192420   9.711   3.577   6.445
29542SOL    HW292421   9.726   3.740   6.436
29543SOL     OW92422   9.631   2.805   5.828
29543SOL    HW192423   9.713   2.844   5.786
29543SOL    HW292424   9.604   2.723   5.779
29544SOL     OW92425   9.771   3.128   7.313
29544SOL    HW192426   9.721   3.129   7.227
29544SOL    HW292427   9.708   3.110   7.389
29545SOL     OW92428   9.512   2.147   7.084
29545SOL    HW192429   9.432   2.207   7.071
29545SOL    HW292430   9.502   2.098   7.170
29546SOL     OW92431   9.774   3.605   5.909
29546SOL    HW192432   9.807   3.644   5.995
29546SOL    HW292433   9.850   3.598   5.844
29547SOL     OW92434   9.559   3.647   6.827
29547SOL    HW192435   9.616   3.582   6.877
29547SOL    HW292436   9.543   3.614   6.734
29548SOL     OW92437   9.692   2.562   6.066
29548SOL    HW192438   9.737   2.472   6.063
29548SOL    HW292439   9.598   2.551   6.099
29549SOL     OW92440   9.924   1.984   5.703
29549SOL    HW192441  10.022   1.962   5.710
29549SOL    HW292442   9.893   1.967   5.610
29550SOL     OW92443  10.113   3.264   6.510
29550SOL    HW192444  10.203   3.278   6.468
29550SOL    HW292445  10.042   3.266   6.439
29551SOL     OW92446   9.849   1.926   6.098
29551SOL    HW192447   9.768   1.927   6.156
29551SOL    HW292448   9.852   2.009   6.043
29552SOL     OW92449   9.607   1.897   5.757
29552SOL    HW192450   9.656   1.981   5.736
29552SOL    HW292451   9.669   1.832   5.802
29553SOL     OW92452  10.245   2.098   6.066
29553SOL    HW192453  10.197   2.139   5.988
29553SOL    HW292454  10.344   2.096   6.047
29554SOL     OW92455   9.769   3.014   6.327
29554SOL    HW192456   9.698   2.987   6.392
29554SOL    HW292457   9.743   2.986   6.234
29555SOL     OW92458   9.388   2.418   6.972
29555SOL    HW192459   9.480   2.417   6.931
29555SOL    HW292460   9.382   2.492   7.039
29556SOL     OW92461   9.871   2.084   6.733
29556SOL    HW192462   9.909   2.000   6.770
29556SOL    HW292463   9.783   2.103   6.777
29557SOL     OW92464   9.837   2.118   5.914
29557SOL    HW192465   9.864   2.059   5.839
29557SOL    HW292466   9.837   2.213   5.883
29558SOL     OW92467   9.374   3.426   6.917
29558SOL    HW192468   9.328   3.508   6.883
29558SOL    HW292469   9.472   3.445   6.926
29559SOL     OW92470   9.677   2.962   6.087
29559SOL    HW192471   9.670   3.045   6.031
29559SOL    HW292472   9.681   2.882   6.027
29560SOL     OW92473   9.664   3.372   6.915
29560SOL    HW192474   9.643   3.328   6.828
29560SOL    HW292475   9.761   3.398   6.918
29561SOL     OW92476   9.712   2.613   7.184
29561SOL    HW192477   9.780   2.668   7.137
29561SOL    HW292478   9.752   2.525   7.211
29562SOL     OW92479   9.814   1.912   7.326
29562SOL    HW192480   9.772   1.855   7.256
29562SOL    HW292481   9.748   1.981   7.358
29563SOL     OW92482   9.617   2.075   6.817
29563SOL    HW192483   9.594   2.112   6.907
29563SOL    HW292484   9.587   1.980   6.811
29564SOL     OW92485   9.347   3.172   6.868
29564SOL    HW192486   9.400   3.123   6.936
29564SOL    HW292487   9.369   3.270   6.873
29565SOL     OW92488   9.617   1.925   6.204
29565SOL    HW192489   9.606   2.019   6.237
29565SOL    HW292490   9.612   1.862   6.281
29566SOL     OW92491   9.660   2.760   7.390
29566SOL    HW192492   9.736   2.804   7.438
29566SOL    HW292493   9.695   2.713   7.308
29567SOL     OW92494   9.629   2.672   6.535
29567SOL    HW192495   9.722   2.708   6.540
29567SOL    HW292496   9.623   2.587   6.587
29568SOL     OW92497   9.318   3.188   5.786
29568SOL    HW192498   9.225   3.209   5.755
29568SOL    HW292499   9.328   3.089   5.799
29569SOL     OW92500   9.398   3.663   6.513
29569SOL    HW192501   9.356   3.577   6.486
29569SOL    HW292502   9.492   3.666   6.479
29570SOL     OW92503   9.814   3.430   6.496
29570SOL    HW192504   9.880   3.504   6.505
29570SOL    HW292505   9.858   3.351   6.454
29571SOL     OW92506   9.350   2.406   6.700
29571SOL    HW192507   9.435   2.373   6.659
29571SOL    HW292508   9.363   2.421   6.798
29572SOL     OW92509   9.499   2.382   7.308
29572SOL    HW192510   9.558   2.342   7.238
29572SOL    HW292511   9.441   2.453   7.267
29573SOL     OW92512  10.125   2.434   5.911
29573SOL    HW192513  10.132   2.345   5.865
29573SOL    HW292514  10.031   2.468   5.903
29574SOL     OW92515   9.562   3.426   7.330
29574SOL    HW192516   9.532   3.483   7.406
29574SOL    HW292517   9.555   3.329   7.356
29575SOL     OW92518   9.783   2.362   5.777
29575SOL    HW192519   9.844   2.442   5.781
29575SOL    HW292520   9.688   2.393   5.784
29576SOL     OW92521   9.469   2.999   7.052
29576SOL    HW192522   9.491   2.938   7.128
29576SOL    HW292523   9.479   2.950   6.966
29577SOL     OW92524   9.393   3.120   6.608
29577SOL    HW192525   9.388   3.119   6.708
29577SOL    HW292526   9.310   3.079   6.570
29578SOL     OW92527   9.998   3.524   7.302
29578SOL    HW192528   9.942   3.605   7.311
29578SOL    HW292529  10.050   3.528   7.216
29579SOL     OW92530   9.440   3.656   7.437
29579SOL    HW192531   9.399   3.582   7.490
29579SOL    HW292532   9.504   3.707   7.495
29580SOL     OW92533   9.573   2.188   6.306
29580SOL    HW192534   9.494   2.239   6.272
29580SOL    HW292535   9.564   2.173   6.404
29581SOL     OW92536   9.682   3.150   7.076
29581SOL    HW192537   9.669   3.243   7.042
29581SOL    HW292538   9.598   3.098   7.063
29582SOL     OW92539   9.900   3.349   6.077
29582SOL    HW192540   9.942   3.291   6.007
29582SOL    HW292541   9.856   3.428   6.033
29583SOL     OW92542   9.565   3.210   5.876
29583SOL    HW192543   9.469   3.211   5.849
29583SOL    HW292544   9.577   3.263   5.960
29584SOL     OW92545   9.415   2.875   7.312
29584SOL    HW192546   9.338   2.842   7.366
29584SOL    HW292547   9.500   2.845   7.354
29585SOL     OW92548   9.982   2.065   7.075
29585SOL    HW192549  10.072   2.049   7.035
29585SOL    HW292550   9.990   2.070   7.174
29586SOL     OW92551   9.923   2.704   7.017
29586SOL    HW192552   9.979   2.785   7.000
29586SOL    HW292553   9.982   2.624   7.020
29587SOL     OW92554   9.700   3.603   7.146
29587SOL    HW192555   9.609   3.644   7.144
29587SOL    HW292556   9.693   3.509   7.178
29588SOL     OW92557   9.904   2.607   6.238
29588SOL    HW192558   9.954   2.692   6.219
29588SOL    HW292559   9.816   2.609   6.190
29589SOL     OW92560   9.531   3.176   7.430
29589SOL    HW192561   9.466   3.103   7.409
29589SOL    HW292562   9.535   3.190   7.528
29590SOL     OW92563   9.389   3.102   6.239
29590SOL    HW192564   9.388   3.055   6.327
29590SOL    HW292565   9.471   3.074   6.188
29591SOL     OW92566   9.982   3.253   7.210
29591SOL    HW192567   9.904   3.203   7.248
29591SOL    HW292568   9.979   3.348   7.241
29592SOL     OW92569   9.738   2.286   6.106
29592SOL    HW192570   9.768   2.214   6.044
29592SOL    HW292571   9.699   2.246   6.189
29593SOL     OW92572   9.627   2.409   6.866
29593SOL    HW192573   9.665   2.350   6.938
29593SOL    HW292574   9.667   2.383   6.778
29594SOL     OW92575   9.349   2.939   5.886
29594SOL    HW192576   9.448   2.928   5.877
29594SOL    HW292577   9.309   2.853   5.918
29595SOL     OW92578   9.540   2.490   7.561
29595SOL    HW192579   9.447   2.488   7.598
29595SOL    HW292580   9.541   2.451   7.469
29596SOL     OW92581   9.535   2.137   8.444
29596SOL    HW192582   9.570   2.120   8.536
29596SOL    HW292583   9.447   2.092   8.432
29597SOL     OW92584   9.329   2.230   8.095
29597SOL    HW192585   9.247   2.273   8.134
29597SOL    HW292586   9.301   2.157   8.032
29598SOL     OW92587   9.879   3.137   8.613
29598SOL    HW192588   9.786   3.130   8.576
29598SOL    HW292589   9.890   3.226   8.657
29599SOL     OW92590  10.160   2.660   9.271
29599SOL    HW192591  10.156   2.736   9.336
29599SOL    HW292592  10.182   2.696   9.180
29600SOL     OW92593   9.645   3.297   8.509
29600SOL    HW192594   9.567   3.266   8.456
29600SOL    HW292595   9.703   3.355   8.452
29601SOL     OW92596   9.541   3.575   7.931
29601SOL    HW192597   9.575   3.652   7.985
29601SOL    HW292598   9.585   3.575   7.841
29602SOL     OW92599   9.540   3.296   7.986
29602SOL    HW192600   9.514   3.392   7.986
29602SOL    HW292601   9.469   3.242   8.031
29603SOL     OW92602   9.550   2.953   8.334
29603SOL    HW192603   9.564   2.869   8.386
29603SOL    HW292604   9.495   3.017   8.389
29604SOL     OW92605   9.432   2.505   8.011
29604SOL    HW192606   9.387   2.417   8.028
29604SOL    HW292607   9.431   2.559   8.095
29605SOL     OW92608   9.337   3.458   7.565
29605SOL    HW192609   9.318   3.362   7.586
29605SOL    HW292610   9.304   3.516   7.640
29606SOL     OW92611   9.923   3.227   8.174
29606SOL    HW192612   9.874   3.140   8.183
29606SOL    HW292613   9.900   3.270   8.087
29607SOL     OW92614   9.507   2.838   8.712
29607SOL    HW192615   9.596   2.793   8.698
29607SOL    HW292616   9.434   2.773   8.693
29608SOL     OW92617   9.627   2.113   9.249
29608SOL    HW192618   9.698   2.184   9.255
29608SOL    HW292619   9.539   2.152   9.277
29609SOL     OW92620   9.908   2.591   7.718
29609SOL    HW192621   9.932   2.660   7.650
29609SOL    HW292622   9.830   2.624   7.772
29610SOL     OW92623   9.386   2.673   8.237
29610SOL    HW192624   9.485   2.661   8.246
29610SOL    HW292625   9.362   2.768   8.258
29611SOL     OW92626   9.440   3.683   9.019
29611SOL    HW192627   9.430   3.668   9.118
29611SOL    HW292628   9.354   3.719   8.983
29612SOL     OW92629  10.175   2.210   7.643
29612SOL    HW192630  10.234   2.273   7.594
29612SOL    HW292631  10.194   2.116   7.614
29613SOL     OW92632   9.860   2.058   8.333
29613SOL    HW192633   9.855   2.053   8.433
29613SOL    HW292634   9.862   2.154   8.304
29614SOL     OW92635   9.661   3.663   8.301
29614SOL    HW192636   9.711   3.577   8.307
29614SOL    HW292637   9.726   3.740   8.298
29615SOL     OW92638   9.631   2.805   7.690
29615SOL    HW192639   9.713   2.844   7.648
29615SOL    HW292640   9.604   2.723   7.641
29616SOL     OW92641   9.771   3.128   9.175
29616SOL    HW192642   9.721   3.129   9.089
29616SOL    HW292643   9.708   3.110   9.251
29617SOL     OW92644   9.512   2.147   8.946
29617SOL    HW192645   9.432   2.207   8.933
29617SOL    HW292646   9.502   2.098   9.032
29618SOL     OW92647   9.774   3.605   7.771
29618SOL    HW192648   9.807   3.644   7.857
29618SOL    HW292649   9.850   3.598   7.706
29619SOL     OW92650   9.559   3.647   8.689
29619SOL    HW192651   9.616   3.582   8.739
29619SOL    HW292652   9.543   3.614   8.596
29620SOL     OW92653   9.692   2.562   7.928
29620SOL    HW192654   9.737   2.472   7.925
29620SOL    HW292655   9.598   2.551   7.961
29621SOL     OW92656   9.849   1.926   7.960
29621SOL    HW192657   9.768   1.927   8.018
29621SOL    HW292658   9.852   2.009   7.905
29622SOL     OW92659   9.607   1.897   7.619
29622SOL    HW192660   9.656   1.981   7.598
29622SOL    HW292661   9.669   1.832   7.664
29623SOL     OW92662  10.245   2.098   7.928
29623SOL    HW192663  10.197   2.139   7.850
29623SOL    HW292664  10.344   2.096   7.909
29624SOL     OW92665   9.769   3.014   8.189
29624SOL    HW192666   9.698   2.987   8.254
29624SOL    HW292667   9.743   2.986   8.096
29625SOL     OW92668   9.871   2.084   8.595
29625SOL    HW192669   9.909   2.000   8.632
29625SOL    HW292670   9.783   2.103   8.639
29626SOL     OW92671   9.837   2.118   7.776
29626SOL    HW192672   9.864   2.059   7.701
29626SOL    HW292673   9.837   2.213   7.745
29627SOL     OW92674   9.720   2.675   8.699
29627SOL    HW192675   9.806   2.687   8.749
29627SOL    HW292676   9.678   2.588   8.726
29628SOL     OW92677   9.374   3.426   8.779
29628SOL    HW192678   9.328   3.508   8.745
29628SOL    HW292679   9.472   3.445   8.788
29629SOL     OW92680   9.677   2.962   7.949
29629SOL    HW192681   9.670   3.045   7.893
29629SOL    HW292682   9.681   2.882   7.889
29630SOL     OW92683   9.876   2.399   8.313
29630SOL    HW192684   9.888   2.465   8.239
29630SOL    HW292685   9.922   2.433   8.396
29631SOL     OW92686   9.664   3.372   8.777
29631SOL    HW192687   9.643   3.328   8.690
29631SOL    HW292688   9.761   3.398   8.780
29632SOL     OW92689   9.814   1.912   9.188
29632SOL    HW192690   9.772   1.855   9.118
29632SOL    HW292691   9.748   1.981   9.220
29633SOL     OW92692   9.883   2.732   8.477
29633SOL    HW192693   9.927   2.821   8.468
29633SOL    HW292694   9.820   2.732   8.554
29634SOL     OW92695   9.617   2.075   8.679
29634SOL    HW192696   9.594   2.112   8.769
29634SOL    HW292697   9.587   1.980   8.673
29635SOL     OW92698   9.347   3.172   8.730
29635SOL    HW192699   9.400   3.123   8.798
29635SOL    HW292700   9.369   3.270   8.735
29636SOL     OW92701   9.617   1.925   8.066
29636SOL    HW192702   9.606   2.019   8.099
29636SOL    HW292703   9.612   1.862   8.143
29637SOL     OW92704   9.629   2.672   8.397
29637SOL    HW192705   9.722   2.708   8.402
29637SOL    HW292706   9.623   2.587   8.449
29638SOL     OW92707   9.649   2.371   8.454
29638SOL    HW192708   9.597   2.288   8.437
29638SOL    HW292709   9.726   2.376   8.390
29639SOL     OW92710   9.318   3.188   7.648
29639SOL    HW192711   9.225   3.209   7.617
29639SOL    HW292712   9.328   3.089   7.661
29640SOL     OW92713   9.398   3.663   8.375
29640SOL    HW192714   9.356   3.577   8.348
29640SOL    HW292715   9.492   3.666   8.341
29641SOL     OW92716   9.814   3.430   8.358
29641SOL    HW192717   9.880   3.504   8.367
29641SOL    HW292718   9.858   3.351   8.316
29642SOL     OW92719   9.350   2.406   8.562
29642SOL    HW192720   9.435   2.373   8.521
29642SOL    HW292721   9.363   2.421   8.660
29643SOL     OW92722  10.125   2.434   7.773
29643SOL    HW192723  10.132   2.345   7.727
29643SOL    HW292724  10.031   2.468   7.765
29644SOL     OW92725   9.562   3.426   9.192
29644SOL    HW192726   9.532   3.483   9.268
29644SOL    HW292727   9.555   3.329   9.218
29645SOL     OW92728   9.783   2.362   7.639
29645SOL    HW192729   9.844   2.442   7.643
29645SOL    HW292730   9.688   2.393   7.646
29646SOL     OW92731   9.469   2.999   8.914
29646SOL    HW192732   9.491   2.938   8.990
29646SOL    HW292733   9.479   2.950   8.828
29647SOL     OW92734   9.393   3.120   8.470
29647SOL    HW192735   9.388   3.119   8.570
29647SOL    HW292736   9.310   3.079   8.432
29648SOL     OW92737   9.998   3.524   9.164
29648SOL    HW192738   9.942   3.605   9.173
29648SOL    HW292739  10.050   3.528   9.078
29649SOL     OW92740   9.440   3.656   9.299
29649SOL    HW192741   9.399   3.582   9.352
29649SOL    HW292742   9.504   3.707   9.357
29650SOL     OW92743   9.573   2.188   8.168
29650SOL    HW192744   9.494   2.239   8.134
29650SOL    HW292745   9.564   2.173   8.266
29651SOL     OW92746   9.682   3.150   8.938
29651SOL    HW192747   9.669   3.243   8.904
29651SOL    HW292748   9.598   3.098   8.925
29652SOL     OW92749   9.900   3.349   7.939
29652SOL    HW192750   9.942   3.291   7.869
29652SOL    HW292751   9.856   3.428   7.895
29653SOL     OW92752   9.565   3.210   7.738
29653SOL    HW192753   9.469   3.211   7.711
29653SOL    HW292754   9.577   3.263   7.822
29654SOL     OW92755   9.415   2.875   9.174
29654SOL    HW192756   9.338   2.842   9.228
29654SOL    HW292757   9.500   2.845   9.216
29655SOL     OW92758   9.982   2.065   8.937
29655SOL    HW192759  10.072   2.049   8.897
29655SOL    HW292760   9.990   2.070   9.036
29656SOL     OW92761   9.385   2.207   7.481
29656SOL    HW192762   9.293   2.179   7.452
29656SOL    HW292763   9.416   2.284   7.425
29657SOL     OW92764   9.382   2.028   7.766
29657SOL    HW192765   9.365   2.111   7.712
29657SOL    HW292766   9.472   1.991   7.744
29658SOL     OW92767   9.923   2.704   8.879
29658SOL    HW192768   9.979   2.785   8.862
29658SOL    HW292769   9.982   2.624   8.882
29659SOL     OW92770   9.700   3.603   9.008
29659SOL    HW192771   9.609   3.644   9.006
29659SOL    HW292772   9.693   3.509   9.040
29660SOL     OW92773   9.904   2.607   8.100
29660SOL    HW192774   9.954   2.692   8.081
29660SOL    HW292775   9.816   2.609   8.052
29661SOL     OW92776   9.531   3.176   9.292
29661SOL    HW192777   9.466   3.103   9.271
29661SOL    HW292778   9.535   3.190   9.390
29662SOL     OW92779   9.389   3.102   8.101
29662SOL    HW192780   9.388   3.055   8.189
29662SOL    HW292781   9.471   3.074   8.050
29663SOL     OW92782   9.982   3.253   9.072
29663SOL    HW192783   9.904   3.203   9.110
29663SOL    HW292784   9.979   3.348   9.103
29664SOL     OW92785   9.738   2.286   7.968
29664SOL    HW192786   9.768   2.214   7.906
29664SOL    HW292787   9.699   2.246   8.051
29665SOL     OW92788   9.349   2.939   7.748
29665SOL    HW192789   9.448   2.928   7.739
29665SOL    HW292790   9.309   2.853   7.780
29666SOL     OW92791   9.541   3.575   9.793
29666SOL    HW192792   9.575   3.652   9.847
29666SOL    HW292793   9.585   3.575   9.703
29667SOL     OW92794   9.540   3.296   9.848
29667SOL    HW192795   9.514   3.392   9.848
29667SOL    HW292796   9.469   3.242   9.893
29668SOL     OW92797   9.432   2.505   9.873
29668SOL    HW192798   9.387   2.417   9.890
29668SOL    HW292799   9.431   2.559   9.957
29669SOL     OW92800   9.337   3.458   9.427
29669SOL    HW192801   9.318   3.362   9.448
29669SOL    HW292802   9.304   3.516   9.502
29670SOL     OW92803  10.119   1.866   9.812
29670SOL    HW192804  10.159   1.957   9.803
29670SOL    HW292805  10.019   1.874   9.818
29671SOL     OW92806   9.908   2.591   9.580
29671SOL    HW192807   9.932   2.660   9.512
29671SOL    HW292808   9.830   2.624   9.634
29672SOL     OW92809   9.386   2.673  10.099
29672SOL    HW192810   9.485   2.661  10.108
29672SOL    HW292811   9.362   2.768  10.120
29673SOL     OW92812  10.175   2.210   9.505
29673SOL    HW192813  10.234   2.273   9.456
29673SOL    HW292814  10.194   2.116   9.476
29674SOL     OW92815   9.661   3.663  10.163
29674SOL    HW192816   9.711   3.577  10.169
29674SOL    HW292817   9.726   3.740  10.160
29675SOL     OW92818   9.631   2.805   9.552
29675SOL    HW192819   9.713   2.844   9.510
29675SOL    HW292820   9.604   2.723   9.503
29676SOL     OW92821   9.774   3.605   9.633
29676SOL    HW192822   9.807   3.644   9.719
29676SOL    HW292823   9.850   3.598   9.568
29677SOL     OW92824   9.692   2.562   9.790
29677SOL    HW192825   9.737   2.472   9.787
29677SOL    HW292826   9.598   2.551   9.823
29678SOL     OW92827   9.924   1.984   9.427
29678SOL    HW192828  10.022   1.962   9.434
29678SOL    HW292829   9.893   1.967   9.334
29679SOL     OW92830   9.849   1.926   9.822
29679SOL    HW192831   9.768   1.927   9.880
29679SOL    HW292832   9.852   2.009   9.767
29680SOL     OW92833   9.607   1.897   9.481
29680SOL    HW192834   9.656   1.981   9.460
29680SOL    HW292835   9.669   1.832   9.526
29681SOL     OW92836  10.245   2.098   9.790
29681SOL    HW192837  10.197   2.139   9.712
29681SOL    HW292838  10.344   2.096   9.771
29682SOL     OW92839   9.769   3.014  10.051
29682SOL    HW192840   9.698   2.987  10.116
29682SOL    HW292841   9.743   2.986   9.958
29683SOL     OW92842   9.837   2.118   9.638
29683SOL    HW192843   9.864   2.059   9.563
29683SOL    HW292844   9.837   2.213   9.607
29684SOL     OW92845   9.677   2.962   9.811
29684SOL    HW192846   9.670   3.045   9.755
29684SOL    HW292847   9.681   2.882   9.751
29685SOL     OW92848   9.617   1.925   9.928
29685SOL    HW192849   9.606   2.019   9.961
29685SOL    HW292850   9.612   1.862  10.005
29686SOL     OW92851   9.318   3.188   9.510
29686SOL    HW192852   9.225   3.209   9.479
29686SOL    HW292853   9.328   3.089   9.523
29687SOL     OW92854  10.125   2.434   9.635
29687SOL    HW192855  10.132   2.345   9.589
29687SOL    HW292856  10.031   2.468   9.627
29688SOL     OW92857   9.783   2.362   9.501
29688SOL    HW192858   9.844   2.442   9.505
29688SOL    HW292859   9.688   2.393   9.508
29689SOL     OW92860   9.900   3.349   9.801
29689SOL    HW192861   9.942   3.291   9.731
29689SOL    HW292862   9.856   3.428   9.757
29690SOL     OW92863   9.565   3.210   9.600
29690SOL    HW192864   9.469   3.211   9.573
29690SOL    HW292865   9.577   3.263   9.684
29691SOL     OW92866   9.385   2.207   9.343
29691SOL    HW192867   9.293   2.179   9.314
29691SOL    HW292868   9.416   2.284   9.287
29692SOL     OW92869   9.382   2.028   9.628
29692SOL    HW192870   9.365   2.111   9.574
29692SOL    HW292871   9.472   1.991   9.606
29693SOL     OW92872   9.904   2.607   9.962
29693SOL    HW192873   9.954   2.692   9.943
29693SOL    HW292874   9.816   2.609   9.914
29694SOL     OW92875   9.389   3.102   9.963
29694SOL    HW192876   9.388   3.055  10.051
29694SOL    HW292877   9.471   3.074   9.912
29695SOL     OW92878   9.738   2.286   9.830
29695SOL    HW192879   9.768   2.214   9.768
29695SOL    HW292880   9.699   2.246   9.913
29696SOL     OW92881   9.349   2.939   9.610
29696SOL    HW192882   9.448   2.928   9.601
29696SOL    HW292883   9.309   2.853   9.642
29697SOL     OW92884   9.540   4.352   0.113
29697SOL    HW192885   9.447   4.350   0.150
29697SOL    HW292886   9.541   4.313   0.021
29698SOL     OW92887   9.329   4.092   0.647
29698SOL    HW192888   9.247   4.135   0.686
29698SOL    HW292889   9.301   4.019   0.584
29699SOL     OW92890   9.879   4.999   1.165
29699SOL    HW192891   9.786   4.992   1.128
29699SOL    HW292892   9.890   5.088   1.209
29700SOL     OW92893  10.160   4.522   1.823
29700SOL    HW192894  10.156   4.598   1.888
29700SOL    HW292895  10.182   4.558   1.732
29701SOL     OW92896   9.645   5.159   1.061
29701SOL    HW192897   9.567   5.128   1.008
29701SOL    HW292898   9.703   5.217   1.004
29702SOL     OW92899   9.748   4.116   1.499
29702SOL    HW192900   9.830   4.060   1.508
29702SOL    HW292901   9.667   4.058   1.503
29703SOL     OW92902   9.541   5.437   0.483
29703SOL    HW192903   9.575   5.514   0.537
29703SOL    HW292904   9.585   5.437   0.393
29704SOL     OW92905   9.540   5.158   0.538
29704SOL    HW192906   9.514   5.254   0.538
29704SOL    HW292907   9.469   5.104   0.583
29705SOL     OW92908   9.550   4.815   0.886
29705SOL    HW192909   9.564   4.731   0.938
29705SOL    HW292910   9.495   4.879   0.941
29706SOL     OW92911   9.432   4.367   0.563
29706SOL    HW192912   9.387   4.279   0.580
29706SOL    HW292913   9.431   4.421   0.647
29707SOL     OW92914   9.337   5.320   0.117
29707SOL    HW192915   9.318   5.224   0.138
29707SOL    HW292916   9.304   5.378   0.192
29708SOL     OW92917   9.423   4.461   1.597
29708SOL    HW192918   9.511   4.448   1.642
29708SOL    HW292919   9.410   4.558   1.575
29709SOL     OW92920   9.923   5.089   0.726
29709SOL    HW192921   9.874   5.002   0.735
29709SOL    HW292922   9.900   5.132   0.639
29710SOL     OW92923  10.119   3.728   0.502
29710SOL    HW192924  10.159   3.819   0.493
29710SOL    HW292925  10.019   3.736   0.508
29711SOL     OW92926   9.507   4.700   1.264
29711SOL    HW192927   9.596   4.655   1.250
29711SOL    HW292928   9.434   4.635   1.245
29712SOL     OW92929   9.627   3.975   1.801
29712SOL    HW192930   9.698   4.046   1.807
29712SOL    HW292931   9.539   4.014   1.829
29713SOL     OW92932   9.908   4.453   0.270
29713SOL    HW192933   9.932   4.522   0.202
29713SOL    HW292934   9.830   4.486   0.324
29714SOL     OW92935   9.386   4.535   0.789
29714SOL    HW192936   9.485   4.523   0.798
29714SOL    HW292937   9.362   4.630   0.810
29715SOL     OW92938  10.175   4.072   0.195
29715SOL    HW192939  10.234   4.135   0.146
29715SOL    HW292940  10.194   3.978   0.166
29716SOL     OW92941   9.860   3.920   0.885
29716SOL    HW192942   9.855   3.915   0.985
29716SOL    HW292943   9.862   4.016   0.856
29717SOL     OW92944   9.661   5.525   0.853
29717SOL    HW192945   9.711   5.439   0.859
29717SOL    HW292946   9.726   5.602   0.850
29718SOL     OW92947   9.631   4.667   0.242
29718SOL    HW192948   9.713   4.706   0.200
29718SOL    HW292949   9.604   4.585   0.193
29719SOL     OW92950   9.771   4.990   1.727
29719SOL    HW192951   9.721   4.991   1.641
29719SOL    HW292952   9.708   4.972   1.803
29720SOL     OW92953   9.512   4.009   1.498
29720SOL    HW192954   9.432   4.069   1.485
29720SOL    HW292955   9.502   3.960   1.584
29721SOL     OW92956   9.774   5.467   0.323
29721SOL    HW192957   9.807   5.506   0.409
29721SOL    HW292958   9.850   5.460   0.258
29722SOL     OW92959   9.559   5.509   1.241
29722SOL    HW192960   9.616   5.444   1.291
29722SOL    HW292961   9.543   5.476   1.148
29723SOL     OW92962   9.692   4.424   0.480
29723SOL    HW192963   9.737   4.334   0.477
29723SOL    HW292964   9.598   4.413   0.513
29724SOL     OW92965   9.924   3.846   0.117
29724SOL    HW192966  10.022   3.824   0.124
29724SOL    HW292967   9.893   3.829   0.024
29725SOL     OW92968  10.113   5.126   0.924
29725SOL    HW192969  10.203   5.140   0.882
29725SOL    HW292970  10.042   5.128   0.853
29726SOL     OW92971   9.849   3.788   0.512
29726SOL    HW192972   9.768   3.789   0.570
29726SOL    HW292973   9.852   3.871   0.457
29727SOL     OW92974  10.245   3.960   0.480
29727SOL    HW192975  10.197   4.001   0.402
29727SOL    HW292976  10.344   3.958   0.461
29728SOL     OW92977   9.769   4.876   0.741
29728SOL    HW192978   9.698   4.849   0.806
29728SOL    HW292979   9.743   4.848   0.648
29729SOL     OW92980   9.388   4.280   1.386
29729SOL    HW192981   9.480   4.279   1.345
29729SOL    HW292982   9.382   4.354   1.453
29730SOL     OW92983   9.871   3.946   1.147
29730SOL    HW192984   9.909   3.862   1.184
29730SOL    HW292985   9.783   3.965   1.191
29731SOL     OW92986   9.837   3.980   0.328
29731SOL    HW192987   9.864   3.921   0.253
29731SOL    HW292988   9.837   4.075   0.297
29732SOL     OW92989   9.720   4.537   1.251
29732SOL    HW192990   9.806   4.549   1.301
29732SOL    HW292991   9.678   4.450   1.278
29733SOL     OW92992   9.374   5.288   1.331
29733SOL    HW192993   9.328   5.370   1.297
29733SOL    HW292994   9.472   5.307   1.340
29734SOL     OW92995   9.677   4.824   0.501
29734SOL    HW192996   9.670   4.907   0.445
29734SOL    HW292997   9.681   4.744   0.441
29735SOL     OW92998   9.876   4.261   0.865
29735SOL    HW192999   9.888   4.327   0.791
29735SOL    HW293000   9.922   4.295   0.948
29736SOL     OW93001   9.664   5.234   1.329
29736SOL    HW193002   9.643   5.190   1.242
29736SOL    HW293003   9.761   5.260   1.332
29737SOL     OW93004   9.712   4.475   1.598
29737SOL    HW193005   9.780   4.530   1.551
29737SOL    HW293006   9.752   4.387   1.625
29738SOL     OW93007   9.883   4.594   1.029
29738SOL    HW193008   9.927   4.683   1.020
29738SOL    HW293009   9.820   4.594   1.106
29739SOL     OW93010   9.617   3.937   1.231
29739SOL    HW193011   9.594   3.974   1.321
29739SOL    HW293012   9.587   3.842   1.225
29740SOL     OW93013   9.617   3.787   0.618
29740SOL    HW193014   9.606   3.881   0.651
29740SOL    HW293015   9.612   3.724   0.695
29741SOL     OW93016   9.660   4.622   1.804
29741SOL    HW193017   9.736   4.666   1.852
29741SOL    HW293018   9.695   4.575   1.722
29742SOL     OW93019   9.629   4.534   0.949
29742SOL    HW193020   9.722   4.570   0.954
29742SOL    HW293021   9.623   4.449   1.001
29743SOL     OW93022   9.649   4.233   1.006
29743SOL    HW193023   9.597   4.150   0.989
29743SOL    HW293024   9.726   4.238   0.942
29744SOL     OW93025   9.318   5.050   0.200
29744SOL    HW193026   9.225   5.071   0.169
29744SOL    HW293027   9.328   4.951   0.213
29745SOL     OW93028   9.814   5.292   0.910
29745SOL    HW193029   9.880   5.366   0.919
29745SOL    HW293030   9.858   5.213   0.868
29746SOL     OW93031   9.499   4.244   1.722
29746SOL    HW193032   9.558   4.204   1.652
29746SOL    HW293033   9.441   4.315   1.681
29747SOL     OW93034  10.125   4.296   0.325
29747SOL    HW193035  10.132   4.207   0.279
29747SOL    HW293036  10.031   4.330   0.317
29748SOL     OW93037   9.562   5.288   1.744
29748SOL    HW193038   9.532   5.345   1.820
29748SOL    HW293039   9.555   5.191   1.770
29749SOL     OW93040   9.783   4.224   0.191
29749SOL    HW193041   9.844   4.304   0.195
29749SOL    HW293042   9.688   4.255   0.198
29750SOL     OW93043   9.393   4.982   1.022
29750SOL    HW193044   9.388   4.981   1.122
29750SOL    HW293045   9.310   4.941   0.984
29751SOL     OW93046   9.998   5.386   1.716
29751SOL    HW193047   9.942   5.467   1.725
29751SOL    HW293048  10.050   5.390   1.630
29752SOL     OW93049   9.440   5.518   1.851
29752SOL    HW193050   9.399   5.444   1.904
29752SOL    HW293051   9.504   5.569   1.909
29753SOL     OW93052   9.573   4.050   0.720
29753SOL    HW193053   9.494   4.101   0.686
29753SOL    HW293054   9.564   4.035   0.818
29754SOL     OW93055   9.682   5.012   1.490
29754SOL    HW193056   9.669   5.105   1.456
29754SOL    HW293057   9.598   4.960   1.477
29755SOL     OW93058   9.900   5.211   0.491
29755SOL    HW193059   9.942   5.153   0.421
29755SOL    HW293060   9.856   5.290   0.447
29756SOL     OW93061   9.565   5.072   0.290
29756SOL    HW193062   9.469   5.073   0.263
29756SOL    HW293063   9.577   5.125   0.374
29757SOL     OW93064   9.415   4.737   1.726
29757SOL    HW193065   9.338   4.704   1.780
29757SOL    HW293066   9.500   4.707   1.768
29758SOL     OW93067   9.385   4.069   0.033
29758SOL    HW193068   9.293   4.041   0.004
29758SOL    HW293069   9.416   4.146  -0.023
29759SOL     OW93070   9.382   3.890   0.318
29759SOL    HW193071   9.365   3.973   0.264
29759SOL    HW293072   9.472   3.853   0.296
29760SOL     OW93073   9.923   4.566   1.431
29760SOL    HW193074   9.979   4.647   1.414
29760SOL    HW293075   9.982   4.486   1.434
29761SOL     OW93076   9.700   5.465   1.560
29761SOL    HW193077   9.609   5.506   1.558
29761SOL    HW293078   9.693   5.371   1.592
29762SOL     OW93079   9.904   4.469   0.652
29762SOL    HW193080   9.954   4.554   0.633
29762SOL    HW293081   9.816   4.471   0.604
29763SOL     OW93082   9.531   5.038   1.844
29763SOL    HW193083   9.466   4.965   1.823
29763SOL    HW293084   9.535   5.052   1.942
29764SOL     OW93085   9.389   4.964   0.653
29764SOL    HW193086   9.388   4.917   0.741
29764SOL    HW293087   9.471   4.936   0.602
29765SOL     OW93088   9.982   5.115   1.624
29765SOL    HW193089   9.904   5.065   1.662
29765SOL    HW293090   9.979   5.210   1.655
29766SOL     OW93091   9.738   4.148   0.520
29766SOL    HW193092   9.768   4.076   0.458
29766SOL    HW293093   9.699   4.108   0.603
29767SOL     OW93094   9.627   4.271   1.280
29767SOL    HW193095   9.665   4.212   1.352
29767SOL    HW293096   9.667   4.245   1.192
29768SOL     OW93097   9.349   4.801   0.300
29768SOL    HW193098   9.448   4.790   0.291
29768SOL    HW293099   9.309   4.715   0.332
29769SOL     OW93100   9.540   4.352   1.975
29769SOL    HW193101   9.447   4.350   2.012
29769SOL    HW293102   9.541   4.313   1.883
29770SOL     OW93103   9.329   4.092   2.509
29770SOL    HW193104   9.247   4.135   2.548
29770SOL    HW293105   9.301   4.019   2.446
29771SOL     OW93106   9.879   4.999   3.027
29771SOL    HW193107   9.786   4.992   2.990
29771SOL    HW293108   9.890   5.088   3.071
29772SOL     OW93109  10.160   4.522   3.685
29772SOL    HW193110  10.156   4.598   3.750
29772SOL    HW293111  10.182   4.558   3.594
29773SOL     OW93112   9.645   5.159   2.923
29773SOL    HW193113   9.567   5.128   2.870
29773SOL    HW293114   9.703   5.217   2.866
29774SOL     OW93115   9.748   4.116   3.361
29774SOL    HW193116   9.830   4.060   3.370
29774SOL    HW293117   9.667   4.058   3.365
29775SOL     OW93118   9.540   5.158   2.400
29775SOL    HW193119   9.514   5.254   2.400
29775SOL    HW293120   9.469   5.104   2.445
29776SOL     OW93121   9.550   4.815   2.748
29776SOL    HW193122   9.564   4.731   2.800
29776SOL    HW293123   9.495   4.879   2.803
29777SOL     OW93124   9.432   4.367   2.425
29777SOL    HW193125   9.387   4.279   2.442
29777SOL    HW293126   9.431   4.421   2.509
29778SOL     OW93127   9.337   5.320   1.979
29778SOL    HW193128   9.318   5.224   2.000
29778SOL    HW293129   9.304   5.378   2.054
29779SOL     OW93130   9.423   4.461   3.459
29779SOL    HW193131   9.511   4.448   3.504
29779SOL    HW293132   9.410   4.558   3.437
29780SOL     OW93133  10.119   3.728   2.364
29780SOL    HW193134  10.159   3.819   2.355
29780SOL    HW293135  10.019   3.736   2.370
29781SOL     OW93136   9.507   4.700   3.126
29781SOL    HW193137   9.596   4.655   3.112
29781SOL    HW293138   9.434   4.635   3.107
29782SOL     OW93139   9.627   3.975   3.663
29782SOL    HW193140   9.698   4.046   3.669
29782SOL    HW293141   9.539   4.014   3.691
29783SOL     OW93142   9.908   4.453   2.132
29783SOL    HW193143   9.932   4.522   2.064
29783SOL    HW293144   9.830   4.486   2.186
29784SOL     OW93145   9.386   4.535   2.651
29784SOL    HW193146   9.485   4.523   2.660
29784SOL    HW293147   9.362   4.630   2.672
29785SOL     OW93148   9.440   5.545   3.433
29785SOL    HW193149   9.430   5.530   3.532
29785SOL    HW293150   9.354   5.581   3.397
29786SOL     OW93151  10.175   4.072   2.057
29786SOL    HW193152  10.234   4.135   2.008
29786SOL    HW293153  10.194   3.978   2.028
29787SOL     OW93154   9.631   4.667   2.104
29787SOL    HW193155   9.713   4.706   2.062
29787SOL    HW293156   9.604   4.585   2.055
29788SOL     OW93157   9.771   4.990   3.589
29788SOL    HW193158   9.721   4.991   3.503
29788SOL    HW293159   9.708   4.972   3.665
29789SOL     OW93160   9.512   4.009   3.360
29789SOL    HW193161   9.432   4.069   3.347
29789SOL    HW293162   9.502   3.960   3.446
29790SOL     OW93163   9.692   4.424   2.342
29790SOL    HW193164   9.737   4.334   2.339
29790SOL    HW293165   9.598   4.413   2.375
29791SOL     OW93166   9.924   3.846   1.979
29791SOL    HW193167  10.022   3.824   1.986
29791SOL    HW293168   9.893   3.829   1.886
29792SOL     OW93169  10.113   5.126   2.786
29792SOL    HW193170  10.203   5.140   2.744
29792SOL    HW293171  10.042   5.128   2.715
29793SOL     OW93172   9.849   3.788   2.374
29793SOL    HW193173   9.768   3.789   2.432
29793SOL    HW293174   9.852   3.871   2.319
29794SOL     OW93175   9.607   3.759   2.033
29794SOL    HW193176   9.656   3.843   2.012
29794SOL    HW293177   9.669   3.694   2.078
29795SOL     OW93178  10.245   3.960   2.342
29795SOL    HW193179  10.197   4.001   2.264
29795SOL    HW293180  10.344   3.958   2.323
29796SOL     OW93181   9.769   4.876   2.603
29796SOL    HW193182   9.698   4.849   2.668
29796SOL    HW293183   9.743   4.848   2.510
29797SOL     OW93184   9.388   4.280   3.248
29797SOL    HW193185   9.480   4.279   3.207
29797SOL    HW293186   9.382   4.354   3.315
29798SOL     OW93187   9.837   3.980   2.190
29798SOL    HW193188   9.864   3.921   2.115
29798SOL    HW293189   9.837   4.075   2.159
29799SOL     OW93190   9.720   4.537   3.113
29799SOL    HW193191   9.806   4.549   3.163
29799SOL    HW293192   9.678   4.450   3.140
29800SOL     OW93193   9.374   5.288   3.193
29800SOL    HW193194   9.328   5.370   3.159
29800SOL    HW293195   9.472   5.307   3.202
29801SOL     OW93196   9.677   4.824   2.363
29801SOL    HW193197   9.670   4.907   2.307
29801SOL    HW293198   9.681   4.744   2.303
29802SOL     OW93199   9.876   4.261   2.727
29802SOL    HW193200   9.888   4.327   2.653
29802SOL    HW293201   9.922   4.295   2.810
29803SOL     OW93202   9.664   5.234   3.191
29803SOL    HW193203   9.643   5.190   3.104
29803SOL    HW293204   9.761   5.260   3.194
29804SOL     OW93205   9.712   4.475   3.460
29804SOL    HW193206   9.780   4.530   3.413
29804SOL    HW293207   9.752   4.387   3.487
29805SOL     OW93208   9.814   3.774   3.602
29805SOL    HW193209   9.772   3.717   3.532
29805SOL    HW293210   9.748   3.843   3.634
29806SOL     OW93211   9.883   4.594   2.891
29806SOL    HW193212   9.927   4.683   2.882
29806SOL    HW293213   9.820   4.594   2.968
29807SOL     OW93214   9.617   3.937   3.093
29807SOL    HW193215   9.594   3.974   3.183
29807SOL    HW293216   9.587   3.842   3.087
29808SOL     OW93217   9.347   5.034   3.144
29808SOL    HW193218   9.400   4.985   3.212
29808SOL    HW293219   9.369   5.132   3.149
29809SOL     OW93220   9.617   3.787   2.480
29809SOL    HW193221   9.606   3.881   2.513
29809SOL    HW293222   9.612   3.724   2.557
29810SOL     OW93223   9.660   4.622   3.666
29810SOL    HW193224   9.736   4.666   3.714
29810SOL    HW293225   9.695   4.575   3.584
29811SOL     OW93226   9.629   4.534   2.811
29811SOL    HW193227   9.722   4.570   2.816
29811SOL    HW293228   9.623   4.449   2.863
29812SOL     OW93229   9.318   5.050   2.062
29812SOL    HW193230   9.225   5.071   2.031
29812SOL    HW293231   9.328   4.951   2.075
29813SOL     OW93232   9.398   5.525   2.789
29813SOL    HW193233   9.356   5.439   2.762
29813SOL    HW293234   9.492   5.528   2.755
29814SOL     OW93235   9.814   5.292   2.772
29814SOL    HW193236   9.880   5.366   2.781
29814SOL    HW293237   9.858   5.213   2.730
29815SOL     OW93238   9.499   4.244   3.584
29815SOL    HW193239   9.558   4.204   3.514
29815SOL    HW293240   9.441   4.315   3.543
29816SOL     OW93241  10.125   4.296   2.187
29816SOL    HW193242  10.132   4.207   2.141
29816SOL    HW293243  10.031   4.330   2.179
29817SOL     OW93244   9.562   5.288   3.606
29817SOL    HW193245   9.532   5.345   3.682
29817SOL    HW293246   9.555   5.191   3.632
29818SOL     OW93247   9.783   4.224   2.053
29818SOL    HW193248   9.844   4.304   2.057
29818SOL    HW293249   9.688   4.255   2.060
29819SOL     OW93250   9.469   4.861   3.328
29819SOL    HW193251   9.491   4.800   3.404
29819SOL    HW293252   9.479   4.812   3.242
29820SOL     OW93253   9.393   4.982   2.884
29820SOL    HW193254   9.388   4.981   2.984
29820SOL    HW293255   9.310   4.941   2.846
29821SOL     OW93256   9.998   5.386   3.578
29821SOL    HW193257   9.942   5.467   3.587
29821SOL    HW293258  10.050   5.390   3.492
29822SOL     OW93259   9.440   5.518   3.713
29822SOL    HW193260   9.399   5.444   3.766
29822SOL    HW293261   9.504   5.569   3.771
29823SOL     OW93262   9.682   5.012   3.352
29823SOL    HW193263   9.669   5.105   3.318
29823SOL    HW293264   9.598   4.960   3.339
29824SOL     OW93265   9.565   5.072   2.152
29824SOL    HW193266   9.469   5.073   2.125
29824SOL    HW293267   9.577   5.125   2.236
29825SOL     OW93268   9.415   4.737   3.588
29825SOL    HW193269   9.338   4.704   3.642
29825SOL    HW293270   9.500   4.707   3.630
29826SOL     OW93271   9.982   3.927   3.351
29826SOL    HW193272  10.072   3.911   3.311
29826SOL    HW293273   9.990   3.932   3.450
29827SOL     OW93274   9.385   4.069   1.895
29827SOL    HW193275   9.293   4.041   1.866
29827SOL    HW293276   9.416   4.146   1.839
29828SOL     OW93277   9.382   3.890   2.180
29828SOL    HW193278   9.365   3.973   2.126
29828SOL    HW293279   9.472   3.853   2.158
29829SOL     OW93280   9.923   4.566   3.293
29829SOL    HW193281   9.979   4.647   3.276
29829SOL    HW293282   9.982   4.486   3.296
29830SOL     OW93283   9.700   5.465   3.422
29830SOL    HW193284   9.609   5.506   3.420
29830SOL    HW293285   9.693   5.371   3.454
29831SOL     OW93286   9.904   4.469   2.514
29831SOL    HW193287   9.954   4.554   2.495
29831SOL    HW293288   9.816   4.471   2.466
29832SOL     OW93289   9.531   5.038   3.706
29832SOL    HW193290   9.466   4.965   3.685
29832SOL    HW293291   9.535   5.052   3.804
29833SOL     OW93292   9.389   4.964   2.515
29833SOL    HW193293   9.388   4.917   2.603
29833SOL    HW293294   9.471   4.936   2.464
29834SOL     OW93295   9.738   4.148   2.382
29834SOL    HW193296   9.768   4.076   2.320
29834SOL    HW293297   9.699   4.108   2.465
29835SOL     OW93298   9.349   4.801   2.162
29835SOL    HW193299   9.448   4.790   2.153
29835SOL    HW293300   9.309   4.715   2.194
29836SOL     OW93301   9.540   4.352   3.837
29836SOL    HW193302   9.447   4.350   3.874
29836SOL    HW293303   9.541   4.313   3.745
29837SOL     OW93304   9.535   3.999   4.720
29837SOL    HW193305   9.570   3.982   4.812
29837SOL    HW293306   9.447   3.954   4.708
29838SOL     OW93307   9.329   4.092   4.371
29838SOL    HW193308   9.247   4.135   4.410
29838SOL    HW293309   9.301   4.019   4.308
29839SOL     OW93310   9.879   4.999   4.889
29839SOL    HW193311   9.786   4.992   4.852
29839SOL    HW293312   9.890   5.088   4.933
29840SOL     OW93313  10.160   4.522   5.547
29840SOL    HW193314  10.156   4.598   5.612
29840SOL    HW293315  10.182   4.558   5.456
29841SOL     OW93316   9.645   5.159   4.785
29841SOL    HW193317   9.567   5.128   4.732
29841SOL    HW293318   9.703   5.217   4.728
29842SOL     OW93319   9.748   4.116   5.223
29842SOL    HW193320   9.830   4.060   5.232
29842SOL    HW293321   9.667   4.058   5.227
29843SOL     OW93322   9.541   5.437   4.207
29843SOL    HW193323   9.575   5.514   4.261
29843SOL    HW293324   9.585   5.437   4.117
29844SOL     OW93325   9.550   4.815   4.610
29844SOL    HW193326   9.564   4.731   4.662
29844SOL    HW293327   9.495   4.879   4.665
29845SOL     OW93328   9.432   4.367   4.287
29845SOL    HW193329   9.387   4.279   4.304
29845SOL    HW293330   9.431   4.421   4.371
29846SOL     OW93331   9.337   5.320   3.841
29846SOL    HW193332   9.318   5.224   3.862
29846SOL    HW293333   9.304   5.378   3.916
29847SOL     OW93334   9.423   4.461   5.321
29847SOL    HW193335   9.511   4.448   5.366
29847SOL    HW293336   9.410   4.558   5.299
29848SOL     OW93337   9.923   5.089   4.450
29848SOL    HW193338   9.874   5.002   4.459
29848SOL    HW293339   9.900   5.132   4.363
29849SOL     OW93340  10.119   3.728   4.226
29849SOL    HW193341  10.159   3.819   4.217
29849SOL    HW293342  10.019   3.736   4.232
29850SOL     OW93343   9.507   4.700   4.988
29850SOL    HW193344   9.596   4.655   4.974
29850SOL    HW293345   9.434   4.635   4.969
29851SOL     OW93346   9.627   3.975   5.525
29851SOL    HW193347   9.698   4.046   5.531
29851SOL    HW293348   9.539   4.014   5.553
29852SOL     OW93349   9.908   4.453   3.994
29852SOL    HW193350   9.932   4.522   3.926
29852SOL    HW293351   9.830   4.486   4.048
29853SOL     OW93352   9.386   4.535   4.513
29853SOL    HW193353   9.485   4.523   4.522
29853SOL    HW293354   9.362   4.630   4.534
29854SOL     OW93355   9.440   5.545   5.295
29854SOL    HW193356   9.430   5.530   5.394
29854SOL    HW293357   9.354   5.581   5.259
29855SOL     OW93358  10.175   4.072   3.919
29855SOL    HW193359  10.234   4.135   3.870
29855SOL    HW293360  10.194   3.978   3.890
29856SOL     OW93361   9.860   3.920   4.609
29856SOL    HW193362   9.855   3.915   4.709
29856SOL    HW293363   9.862   4.016   4.580
29857SOL     OW93364   9.661   5.525   4.577
29857SOL    HW193365   9.711   5.439   4.583
29857SOL    HW293366   9.726   5.602   4.574
29858SOL     OW93367   9.631   4.667   3.966
29858SOL    HW193368   9.713   4.706   3.924
29858SOL    HW293369   9.604   4.585   3.917
29859SOL     OW93370   9.771   4.990   5.451
29859SOL    HW193371   9.721   4.991   5.365
29859SOL    HW293372   9.708   4.972   5.527
29860SOL     OW93373   9.512   4.009   5.222
29860SOL    HW193374   9.432   4.069   5.209
29860SOL    HW293375   9.502   3.960   5.308
29861SOL     OW93376   9.774   5.467   4.047
29861SOL    HW193377   9.807   5.506   4.133
29861SOL    HW293378   9.850   5.460   3.982
29862SOL     OW93379   9.692   4.424   4.204
29862SOL    HW193380   9.737   4.334   4.201
29862SOL    HW293381   9.598   4.413   4.237
29863SOL     OW93382   9.924   3.846   3.841
29863SOL    HW193383  10.022   3.824   3.848
29863SOL    HW293384   9.893   3.829   3.748
29864SOL     OW93385  10.113   5.126   4.648
29864SOL    HW193386  10.203   5.140   4.606
29864SOL    HW293387  10.042   5.128   4.577
29865SOL     OW93388   9.849   3.788   4.236
29865SOL    HW193389   9.768   3.789   4.294
29865SOL    HW293390   9.852   3.871   4.181
29866SOL     OW93391   9.607   3.759   3.895
29866SOL    HW193392   9.656   3.843   3.874
29866SOL    HW293393   9.669   3.694   3.940
29867SOL     OW93394  10.245   3.960   4.204
29867SOL    HW193395  10.197   4.001   4.126
29867SOL    HW293396  10.344   3.958   4.185
29868SOL     OW93397   9.769   4.876   4.465
29868SOL    HW193398   9.698   4.849   4.530
29868SOL    HW293399   9.743   4.848   4.372
29869SOL     OW93400   9.388   4.280   5.110
29869SOL    HW193401   9.480   4.279   5.069
29869SOL    HW293402   9.382   4.354   5.177
29870SOL     OW93403   9.871   3.946   4.871
29870SOL    HW193404   9.909   3.862   4.908
29870SOL    HW293405   9.783   3.965   4.915
29871SOL     OW93406   9.837   3.980   4.052
29871SOL    HW193407   9.864   3.921   3.977
29871SOL    HW293408   9.837   4.075   4.021
29872SOL     OW93409   9.720   4.537   4.975
29872SOL    HW193410   9.806   4.549   5.025
29872SOL    HW293411   9.678   4.450   5.002
29873SOL     OW93412   9.374   5.288   5.055
29873SOL    HW193413   9.328   5.370   5.021
29873SOL    HW293414   9.472   5.307   5.064
29874SOL     OW93415   9.677   4.824   4.225
29874SOL    HW193416   9.670   4.907   4.169
29874SOL    HW293417   9.681   4.744   4.165
29875SOL     OW93418   9.876   4.261   4.589
29875SOL    HW193419   9.888   4.327   4.515
29875SOL    HW293420   9.922   4.295   4.672
29876SOL     OW93421   9.712   4.475   5.322
29876SOL    HW193422   9.780   4.530   5.275
29876SOL    HW293423   9.752   4.387   5.349
29877SOL     OW93424   9.814   3.774   5.464
29877SOL    HW193425   9.772   3.717   5.394
29877SOL    HW293426   9.748   3.843   5.496
29878SOL     OW93427   9.883   4.594   4.753
29878SOL    HW193428   9.927   4.683   4.744
29878SOL    HW293429   9.820   4.594   4.830
29879SOL     OW93430   9.617   3.937   4.955
29879SOL    HW193431   9.594   3.974   5.045
29879SOL    HW293432   9.587   3.842   4.949
29880SOL     OW93433   9.347   5.034   5.006
29880SOL    HW193434   9.400   4.985   5.074
29880SOL    HW293435   9.369   5.132   5.011
29881SOL     OW93436   9.617   3.787   4.342
29881SOL    HW193437   9.606   3.881   4.375
29881SOL    HW293438   9.612   3.724   4.419
29882SOL     OW93439   9.660   4.622   5.528
29882SOL    HW193440   9.736   4.666   5.576
29882SOL    HW293441   9.695   4.575   5.446
29883SOL     OW93442   9.629   4.534   4.673
29883SOL    HW193443   9.722   4.570   4.678
29883SOL    HW293444   9.623   4.449   4.725
29884SOL     OW93445   9.649   4.233   4.730
29884SOL    HW193446   9.597   4.150   4.713
29884SOL    HW293447   9.726   4.238   4.666
29885SOL     OW93448   9.318   5.050   3.924
29885SOL    HW193449   9.225   5.071   3.893
29885SOL    HW293450   9.328   4.951   3.937
29886SOL     OW93451   9.398   5.525   4.651
29886SOL    HW193452   9.356   5.439   4.624
29886SOL    HW293453   9.492   5.528   4.617
29887SOL     OW93454   9.814   5.292   4.634
29887SOL    HW193455   9.880   5.366   4.643
29887SOL    HW293456   9.858   5.213   4.592
29888SOL     OW93457   9.350   4.268   4.838
29888SOL    HW193458   9.435   4.235   4.797
29888SOL    HW293459   9.363   4.283   4.936
29889SOL     OW93460   9.499   4.244   5.446
29889SOL    HW193461   9.558   4.204   5.376
29889SOL    HW293462   9.441   4.315   5.405
29890SOL     OW93463  10.125   4.296   4.049
29890SOL    HW193464  10.132   4.207   4.003
29890SOL    HW293465  10.031   4.330   4.041
29891SOL     OW93466   9.562   5.288   5.468
29891SOL    HW193467   9.532   5.345   5.544
29891SOL    HW293468   9.555   5.191   5.494
29892SOL     OW93469   9.783   4.224   3.915
29892SOL    HW193470   9.844   4.304   3.919
29892SOL    HW293471   9.688   4.255   3.922
29893SOL     OW93472   9.469   4.861   5.190
29893SOL    HW193473   9.491   4.800   5.266
29893SOL    HW293474   9.479   4.812   5.104
29894SOL     OW93475   9.393   4.982   4.746
29894SOL    HW193476   9.388   4.981   4.846
29894SOL    HW293477   9.310   4.941   4.708
29895SOL     OW93478   9.440   5.518   5.575
29895SOL    HW193479   9.399   5.444   5.628
29895SOL    HW293480   9.504   5.569   5.633
29896SOL     OW93481   9.573   4.050   4.444
29896SOL    HW193482   9.494   4.101   4.410
29896SOL    HW293483   9.564   4.035   4.542
29897SOL     OW93484   9.682   5.012   5.214
29897SOL    HW193485   9.669   5.105   5.180
29897SOL    HW293486   9.598   4.960   5.201
29898SOL     OW93487   9.900   5.211   4.215
29898SOL    HW193488   9.942   5.153   4.145
29898SOL    HW293489   9.856   5.290   4.171
29899SOL     OW93490   9.565   5.072   4.014
29899SOL    HW193491   9.469   5.073   3.987
29899SOL    HW293492   9.577   5.125   4.098
29900SOL     OW93493   9.415   4.737   5.450
29900SOL    HW193494   9.338   4.704   5.504
29900SOL    HW293495   9.500   4.707   5.492
29901SOL     OW93496   9.982   3.927   5.213
29901SOL    HW193497  10.072   3.911   5.173
29901SOL    HW293498   9.990   3.932   5.312
29902SOL     OW93499   9.385   4.069   3.757
29902SOL    HW193500   9.293   4.041   3.728
29902SOL    HW293501   9.416   4.146   3.701
29903SOL     OW93502   9.382   3.890   4.042
29903SOL    HW193503   9.365   3.973   3.988
29903SOL    HW293504   9.472   3.853   4.020
29904SOL     OW93505   9.923   4.566   5.155
29904SOL    HW193506   9.979   4.647   5.138
29904SOL    HW293507   9.982   4.486   5.158
29905SOL     OW93508   9.904   4.469   4.376
29905SOL    HW193509   9.954   4.554   4.357
29905SOL    HW293510   9.816   4.471   4.328
29906SOL     OW93511   9.531   5.038   5.568
29906SOL    HW193512   9.466   4.965   5.547
29906SOL    HW293513   9.535   5.052   5.666
29907SOL     OW93514   9.982   5.115   5.348
29907SOL    HW193515   9.904   5.065   5.386
29907SOL    HW293516   9.979   5.210   5.379
29908SOL     OW93517   9.738   4.148   4.244
29908SOL    HW193518   9.768   4.076   4.182
29908SOL    HW293519   9.699   4.108   4.327
29909SOL     OW93520   9.627   4.271   5.004
29909SOL    HW193521   9.665   4.212   5.076
29909SOL    HW293522   9.667   4.245   4.916
29910SOL     OW93523   9.349   4.801   4.024
29910SOL    HW193524   9.448   4.790   4.015
29910SOL    HW293525   9.309   4.715   4.056
29911SOL     OW93526   9.540   4.352   5.699
29911SOL    HW193527   9.447   4.350   5.736
29911SOL    HW293528   9.541   4.313   5.607
29912SOL     OW93529   9.535   3.999   6.582
29912SOL    HW193530   9.570   3.982   6.674
29912SOL    HW293531   9.447   3.954   6.570
29913SOL     OW93532   9.329   4.092   6.233
29913SOL    HW193533   9.247   4.135   6.272
29913SOL    HW293534   9.301   4.019   6.170
29914SOL     OW93535   9.879   4.999   6.751
29914SOL    HW193536   9.786   4.992   6.714
29914SOL    HW293537   9.890   5.088   6.795
29915SOL     OW93538  10.160   4.522   7.409
29915SOL    HW193539  10.156   4.598   7.474
29915SOL    HW293540  10.182   4.558   7.318
29916SOL     OW93541   9.645   5.159   6.647
29916SOL    HW193542   9.567   5.128   6.594
29916SOL    HW293543   9.703   5.217   6.590
29917SOL     OW93544   9.541   5.437   6.069
29917SOL    HW193545   9.575   5.514   6.123
29917SOL    HW293546   9.585   5.437   5.979
29918SOL     OW93547   9.540   5.158   6.124
29918SOL    HW193548   9.514   5.254   6.124
29918SOL    HW293549   9.469   5.104   6.169
29919SOL     OW93550   9.550   4.815   6.472
29919SOL    HW193551   9.564   4.731   6.524
29919SOL    HW293552   9.495   4.879   6.527
29920SOL     OW93553   9.432   4.367   6.149
29920SOL    HW193554   9.387   4.279   6.166
29920SOL    HW293555   9.431   4.421   6.233
29921SOL     OW93556   9.337   5.320   5.703
29921SOL    HW193557   9.318   5.224   5.724
29921SOL    HW293558   9.304   5.378   5.778
29922SOL     OW93559   9.423   4.461   7.183
29922SOL    HW193560   9.511   4.448   7.228
29922SOL    HW293561   9.410   4.558   7.161
29923SOL     OW93562   9.923   5.089   6.312
29923SOL    HW193563   9.874   5.002   6.321
29923SOL    HW293564   9.900   5.132   6.225
29924SOL     OW93565  10.119   3.728   6.088
29924SOL    HW193566  10.159   3.819   6.079
29924SOL    HW293567  10.019   3.736   6.094
29925SOL     OW93568   9.507   4.700   6.850
29925SOL    HW193569   9.596   4.655   6.836
29925SOL    HW293570   9.434   4.635   6.831
29926SOL     OW93571   9.386   4.535   6.375
29926SOL    HW193572   9.485   4.523   6.384
29926SOL    HW293573   9.362   4.630   6.396
29927SOL     OW93574   9.440   5.545   7.157
29927SOL    HW193575   9.430   5.530   7.256
29927SOL    HW293576   9.354   5.581   7.121
29928SOL     OW93577  10.175   4.072   5.781
29928SOL    HW193578  10.234   4.135   5.732
29928SOL    HW293579  10.194   3.978   5.752
29929SOL     OW93580   9.860   3.920   6.471
29929SOL    HW193581   9.855   3.915   6.571
29929SOL    HW293582   9.862   4.016   6.442
29930SOL     OW93583   9.661   5.525   6.439
29930SOL    HW193584   9.711   5.439   6.445
29930SOL    HW293585   9.726   5.602   6.436
29931SOL     OW93586   9.631   4.667   5.828
29931SOL    HW193587   9.713   4.706   5.786
29931SOL    HW293588   9.604   4.585   5.779
29932SOL     OW93589   9.771   4.990   7.313
29932SOL    HW193590   9.721   4.991   7.227
29932SOL    HW293591   9.708   4.972   7.389
29933SOL     OW93592   9.512   4.009   7.084
29933SOL    HW193593   9.432   4.069   7.071
29933SOL    HW293594   9.502   3.960   7.170
29934SOL     OW93595   9.774   5.467   5.909
29934SOL    HW193596   9.807   5.506   5.995
29934SOL    HW293597   9.850   5.460   5.844
29935SOL     OW93598   9.559   5.509   6.827
29935SOL    HW193599   9.616   5.444   6.877
29935SOL    HW293600   9.543   5.476   6.734
29936SOL     OW93601   9.924   3.846   5.703
29936SOL    HW193602  10.022   3.824   5.710
29936SOL    HW293603   9.893   3.829   5.610
29937SOL     OW93604  10.113   5.126   6.510
29937SOL    HW193605  10.203   5.140   6.468
29937SOL    HW293606  10.042   5.128   6.439
29938SOL     OW93607   9.849   3.788   6.098
29938SOL    HW193608   9.768   3.789   6.156
29938SOL    HW293609   9.852   3.871   6.043
29939SOL     OW93610   9.607   3.759   5.757
29939SOL    HW193611   9.656   3.843   5.736
29939SOL    HW293612   9.669   3.694   5.802
29940SOL     OW93613  10.245   3.960   6.066
29940SOL    HW193614  10.197   4.001   5.988
29940SOL    HW293615  10.344   3.958   6.047
29941SOL     OW93616   9.769   4.876   6.327
29941SOL    HW193617   9.698   4.849   6.392
29941SOL    HW293618   9.743   4.848   6.234
29942SOL     OW93619   9.388   4.280   6.972
29942SOL    HW193620   9.480   4.279   6.931
29942SOL    HW293621   9.382   4.354   7.039
29943SOL     OW93622   9.871   3.946   6.733
29943SOL    HW193623   9.909   3.862   6.770
29943SOL    HW293624   9.783   3.965   6.777
29944SOL     OW93625   9.837   3.980   5.914
29944SOL    HW193626   9.864   3.921   5.839
29944SOL    HW293627   9.837   4.075   5.883
29945SOL     OW93628   9.720   4.537   6.837
29945SOL    HW193629   9.806   4.549   6.887
29945SOL    HW293630   9.678   4.450   6.864
29946SOL     OW93631   9.374   5.288   6.917
29946SOL    HW193632   9.328   5.370   6.883
29946SOL    HW293633   9.472   5.307   6.926
29947SOL     OW93634   9.677   4.824   6.087
29947SOL    HW193635   9.670   4.907   6.031
29947SOL    HW293636   9.681   4.744   6.027
29948SOL     OW93637   9.664   5.234   6.915
29948SOL    HW193638   9.643   5.190   6.828
29948SOL    HW293639   9.761   5.260   6.918
29949SOL     OW93640   9.712   4.475   7.184
29949SOL    HW193641   9.780   4.530   7.137
29949SOL    HW293642   9.752   4.387   7.211
29950SOL     OW93643   9.883   4.594   6.615
29950SOL    HW193644   9.927   4.683   6.606
29950SOL    HW293645   9.820   4.594   6.692
29951SOL     OW93646   9.617   3.937   6.817
29951SOL    HW193647   9.594   3.974   6.907
29951SOL    HW293648   9.587   3.842   6.811
29952SOL     OW93649   9.347   5.034   6.868
29952SOL    HW193650   9.400   4.985   6.936
29952SOL    HW293651   9.369   5.132   6.873
29953SOL     OW93652   9.617   3.787   6.204
29953SOL    HW193653   9.606   3.881   6.237
29953SOL    HW293654   9.612   3.724   6.281
29954SOL     OW93655   9.660   4.622   7.390
29954SOL    HW193656   9.736   4.666   7.438
29954SOL    HW293657   9.695   4.575   7.308
29955SOL     OW93658   9.629   4.534   6.535
29955SOL    HW193659   9.722   4.570   6.540
29955SOL    HW293660   9.623   4.449   6.587
29956SOL     OW93661   9.649   4.233   6.592
29956SOL    HW193662   9.597   4.150   6.575
29956SOL    HW293663   9.726   4.238   6.528
29957SOL     OW93664   9.318   5.050   5.786
29957SOL    HW193665   9.225   5.071   5.755
29957SOL    HW293666   9.328   4.951   5.799
29958SOL     OW93667   9.398   5.525   6.513
29958SOL    HW193668   9.356   5.439   6.486
29958SOL    HW293669   9.492   5.528   6.479
29959SOL     OW93670   9.814   5.292   6.496
29959SOL    HW193671   9.880   5.366   6.505
29959SOL    HW293672   9.858   5.213   6.454
29960SOL     OW93673   9.350   4.268   6.700
29960SOL    HW193674   9.435   4.235   6.659
29960SOL    HW293675   9.363   4.283   6.798
29961SOL     OW93676   9.562   5.288   7.330
29961SOL    HW193677   9.532   5.345   7.406
29961SOL    HW293678   9.555   5.191   7.356
29962SOL     OW93679   9.469   4.861   7.052
29962SOL    HW193680   9.491   4.800   7.128
29962SOL    HW293681   9.479   4.812   6.966
29963SOL     OW93682   9.393   4.982   6.608
29963SOL    HW193683   9.388   4.981   6.708
29963SOL    HW293684   9.310   4.941   6.570
29964SOL     OW93685   9.998   5.386   7.302
29964SOL    HW193686   9.942   5.467   7.311
29964SOL    HW293687  10.050   5.390   7.216
29965SOL     OW93688   9.573   4.050   6.306
29965SOL    HW193689   9.494   4.101   6.272
29965SOL    HW293690   9.564   4.035   6.404
29966SOL     OW93691   9.682   5.012   7.076
29966SOL    HW193692   9.669   5.105   7.042
29966SOL    HW293693   9.598   4.960   7.063
29967SOL     OW93694   9.900   5.211   6.077
29967SOL    HW193695   9.942   5.153   6.007
29967SOL    HW293696   9.856   5.290   6.033
29968SOL     OW93697   9.565   5.072   5.876
29968SOL    HW193698   9.469   5.073   5.849
29968SOL    HW293699   9.577   5.125   5.960
29969SOL     OW93700   9.415   4.737   7.312
29969SOL    HW193701   9.338   4.704   7.366
29969SOL    HW293702   9.500   4.707   7.354
29970SOL     OW93703   9.385   4.069   5.619
29970SOL    HW193704   9.293   4.041   5.590
29970SOL    HW293705   9.416   4.146   5.563
29971SOL     OW93706   9.382   3.890   5.904
29971SOL    HW193707   9.365   3.973   5.850
29971SOL    HW293708   9.472   3.853   5.882
29972SOL     OW93709   9.923   4.566   7.017
29972SOL    HW193710   9.979   4.647   7.000
29972SOL    HW293711   9.982   4.486   7.020
29973SOL     OW93712   9.700   5.465   7.146
29973SOL    HW193713   9.609   5.506   7.144
29973SOL    HW293714   9.693   5.371   7.178
29974SOL     OW93715   9.531   5.038   7.430
29974SOL    HW193716   9.466   4.965   7.409
29974SOL    HW293717   9.535   5.052   7.528
29975SOL     OW93718   9.389   4.964   6.239
29975SOL    HW193719   9.388   4.917   6.327
29975SOL    HW293720   9.471   4.936   6.188
29976SOL     OW93721   9.982   5.115   7.210
29976SOL    HW193722   9.904   5.065   7.248
29976SOL    HW293723   9.979   5.210   7.241
29977SOL     OW93724   9.627   4.271   6.866
29977SOL    HW193725   9.665   4.212   6.938
29977SOL    HW293726   9.667   4.245   6.778
29978SOL     OW93727   9.349   4.801   5.886
29978SOL    HW193728   9.448   4.790   5.877
29978SOL    HW293729   9.309   4.715   5.918
29979SOL     OW93730   9.540   4.352   7.561
29979SOL    HW193731   9.447   4.350   7.598
29979SOL    HW293732   9.541   4.313   7.469
29980SOL     OW93733   9.535   3.999   8.444
29980SOL    HW193734   9.570   3.982   8.536
29980SOL    HW293735   9.447   3.954   8.432
29981SOL     OW93736   9.329   4.092   8.095
29981SOL    HW193737   9.247   4.135   8.134
29981SOL    HW293738   9.301   4.019   8.032
29982SOL     OW93739   9.879   4.999   8.613
29982SOL    HW193740   9.786   4.992   8.576
29982SOL    HW293741   9.890   5.088   8.657
29983SOL     OW93742  10.160   4.522   9.271
29983SOL    HW193743  10.156   4.598   9.336
29983SOL    HW293744  10.182   4.558   9.180
29984SOL     OW93745   9.645   5.159   8.509
29984SOL    HW193746   9.567   5.128   8.456
29984SOL    HW293747   9.703   5.217   8.452
29985SOL     OW93748   9.748   4.116   8.947
29985SOL    HW193749   9.830   4.060   8.956
29985SOL    HW293750   9.667   4.058   8.951
29986SOL     OW93751   9.550   4.815   8.334
29986SOL    HW193752   9.564   4.731   8.386
29986SOL    HW293753   9.495   4.879   8.389
29987SOL     OW93754   9.432   4.367   8.011
29987SOL    HW193755   9.387   4.279   8.028
29987SOL    HW293756   9.431   4.421   8.095
29988SOL     OW93757   9.337   5.320   7.565
29988SOL    HW193758   9.318   5.224   7.586
29988SOL    HW293759   9.304   5.378   7.640
29989SOL     OW93760   9.423   4.461   9.045
29989SOL    HW193761   9.511   4.448   9.090
29989SOL    HW293762   9.410   4.558   9.023
29990SOL     OW93763   9.507   4.700   8.712
29990SOL    HW193764   9.596   4.655   8.698
29990SOL    HW293765   9.434   4.635   8.693
29991SOL     OW93766   9.627   3.975   9.249
29991SOL    HW193767   9.698   4.046   9.255
29991SOL    HW293768   9.539   4.014   9.277
29992SOL     OW93769   9.908   4.453   7.718
29992SOL    HW193770   9.932   4.522   7.650
29992SOL    HW293771   9.830   4.486   7.772
29993SOL     OW93772   9.386   4.535   8.237
29993SOL    HW193773   9.485   4.523   8.246
29993SOL    HW293774   9.362   4.630   8.258
29994SOL     OW93775   9.440   5.545   9.019
29994SOL    HW193776   9.430   5.530   9.118
29994SOL    HW293777   9.354   5.581   8.983
29995SOL     OW93778  10.175   4.072   7.643
29995SOL    HW193779  10.234   4.135   7.594
29995SOL    HW293780  10.194   3.978   7.614
29996SOL     OW93781   9.860   3.920   8.333
29996SOL    HW193782   9.855   3.915   8.433
29996SOL    HW293783   9.862   4.016   8.304
29997SOL     OW93784   9.661   5.525   8.301
29997SOL    HW193785   9.711   5.439   8.307
29997SOL    HW293786   9.726   5.602   8.298
29998SOL     OW93787   9.631   4.667   7.690
29998SOL    HW193788   9.713   4.706   7.648
29998SOL    HW293789   9.604   4.585   7.641
29999SOL     OW93790   9.771   4.990   9.175
29999SOL    HW193791   9.721   4.991   9.089
29999SOL    HW293792   9.708   4.972   9.251
30000SOL     OW93793   9.512   4.009   8.946
30000SOL    HW193794   9.432   4.069   8.933
30000SOL    HW293795   9.502   3.960   9.032
30001SOL     OW93796   9.559   5.509   8.689
30001SOL    HW193797   9.616   5.444   8.739
30001SOL    HW293798   9.543   5.476   8.596
30002SOL     OW93799   9.692   4.424   7.928
30002SOL    HW193800   9.737   4.334   7.925
30002SOL    HW293801   9.598   4.413   7.961
30003SOL     OW93802  10.113   5.126   8.372
30003SOL    HW193803  10.203   5.140   8.330
30003SOL    HW293804  10.042   5.128   8.301
30004SOL     OW93805   9.849   3.788   7.960
30004SOL    HW193806   9.768   3.789   8.018
30004SOL    HW293807   9.852   3.871   7.905
30005SOL     OW93808   9.769   4.876   8.189
30005SOL    HW193809   9.698   4.849   8.254
30005SOL    HW293810   9.743   4.848   8.096
30006SOL     OW93811   9.388   4.280   8.834
30006SOL    HW193812   9.480   4.279   8.793
30006SOL    HW293813   9.382   4.354   8.901
30007SOL     OW93814   9.871   3.946   8.595
30007SOL    HW193815   9.909   3.862   8.632
30007SOL    HW293816   9.783   3.965   8.639
30008SOL     OW93817   9.837   3.980   7.776
30008SOL    HW193818   9.864   3.921   7.701
30008SOL    HW293819   9.837   4.075   7.745
30009SOL     OW93820   9.720   4.537   8.699
30009SOL    HW193821   9.806   4.549   8.749
30009SOL    HW293822   9.678   4.450   8.726
30010SOL     OW93823   9.374   5.288   8.779
30010SOL    HW193824   9.328   5.370   8.745
30010SOL    HW293825   9.472   5.307   8.788
30011SOL     OW93826   9.876   4.261   8.313
30011SOL    HW193827   9.888   4.327   8.239
30011SOL    HW293828   9.922   4.295   8.396
30012SOL     OW93829   9.664   5.234   8.777
30012SOL    HW193830   9.643   5.190   8.690
30012SOL    HW293831   9.761   5.260   8.780
30013SOL     OW93832   9.712   4.475   9.046
30013SOL    HW193833   9.780   4.530   8.999
30013SOL    HW293834   9.752   4.387   9.073
30014SOL     OW93835   9.814   3.774   9.188
30014SOL    HW193836   9.772   3.717   9.118
30014SOL    HW293837   9.748   3.843   9.220
30015SOL     OW93838   9.883   4.594   8.477
30015SOL    HW193839   9.927   4.683   8.468
30015SOL    HW293840   9.820   4.594   8.554
30016SOL     OW93841   9.617   3.937   8.679
30016SOL    HW193842   9.594   3.974   8.769
30016SOL    HW293843   9.587   3.842   8.673
30017SOL     OW93844   9.347   5.034   8.730
30017SOL    HW193845   9.400   4.985   8.798
30017SOL    HW293846   9.369   5.132   8.735
30018SOL     OW93847   9.617   3.787   8.066
30018SOL    HW193848   9.606   3.881   8.099
30018SOL    HW293849   9.612   3.724   8.143
30019SOL     OW93850   9.660   4.622   9.252
30019SOL    HW193851   9.736   4.666   9.300
30019SOL    HW293852   9.695   4.575   9.170
30020SOL     OW93853   9.629   4.534   8.397
30020SOL    HW193854   9.722   4.570   8.402
30020SOL    HW293855   9.623   4.449   8.449
30021SOL     OW93856   9.649   4.233   8.454
30021SOL    HW193857   9.597   4.150   8.437
30021SOL    HW293858   9.726   4.238   8.390
30022SOL     OW93859   9.318   5.050   7.648
30022SOL    HW193860   9.225   5.071   7.617
30022SOL    HW293861   9.328   4.951   7.661
30023SOL     OW93862   9.398   5.525   8.375
30023SOL    HW193863   9.356   5.439   8.348
30023SOL    HW293864   9.492   5.528   8.341
30024SOL     OW93865   9.814   5.292   8.358
30024SOL    HW193866   9.880   5.366   8.367
30024SOL    HW293867   9.858   5.213   8.316
30025SOL     OW93868   9.350   4.268   8.562
30025SOL    HW193869   9.435   4.235   8.521
30025SOL    HW293870   9.363   4.283   8.660
30026SOL     OW93871   9.499   4.244   9.170
30026SOL    HW193872   9.558   4.204   9.100
30026SOL    HW293873   9.441   4.315   9.129
30027SOL     OW93874  10.125   4.296   7.773
30027SOL    HW193875  10.132   4.207   7.727
30027SOL    HW293876  10.031   4.330   7.765
30028SOL     OW93877   9.562   5.288   9.192
30028SOL    HW193878   9.532   5.345   9.268
30028SOL    HW293879   9.555   5.191   9.218
30029SOL     OW93880   9.783   4.224   7.639
30029SOL    HW193881   9.844   4.304   7.643
30029SOL    HW293882   9.688   4.255   7.646
30030SOL     OW93883   9.469   4.861   8.914
30030SOL    HW193884   9.491   4.800   8.990
30030SOL    HW293885   9.479   4.812   8.828
30031SOL     OW93886   9.393   4.982   8.470
30031SOL    HW193887   9.388   4.981   8.570
30031SOL    HW293888   9.310   4.941   8.432
30032SOL     OW93889   9.998   5.386   9.164
30032SOL    HW193890   9.942   5.467   9.173
30032SOL    HW293891  10.050   5.390   9.078
30033SOL     OW93892   9.440   5.518   9.299
30033SOL    HW193893   9.399   5.444   9.352
30033SOL    HW293894   9.504   5.569   9.357
30034SOL     OW93895   9.573   4.050   8.168
30034SOL    HW193896   9.494   4.101   8.134
30034SOL    HW293897   9.564   4.035   8.266
30035SOL     OW93898   9.682   5.012   8.938
30035SOL    HW193899   9.669   5.105   8.904
30035SOL    HW293900   9.598   4.960   8.925
30036SOL     OW93901   9.415   4.737   9.174
30036SOL    HW193902   9.338   4.704   9.228
30036SOL    HW293903   9.500   4.707   9.216
30037SOL     OW93904   9.982   3.927   8.937
30037SOL    HW193905  10.072   3.911   8.897
30037SOL    HW293906   9.990   3.932   9.036
30038SOL     OW93907   9.382   3.890   7.766
30038SOL    HW193908   9.365   3.973   7.712
30038SOL    HW293909   9.472   3.853   7.744
30039SOL     OW93910   9.923   4.566   8.879
30039SOL    HW193911   9.979   4.647   8.862
30039SOL    HW293912   9.982   4.486   8.882
30040SOL     OW93913   9.700   5.465   9.008
30040SOL    HW193914   9.609   5.506   9.006
30040SOL    HW293915   9.693   5.371   9.040
30041SOL     OW93916   9.904   4.469   8.100
30041SOL    HW193917   9.954   4.554   8.081
30041SOL    HW293918   9.816   4.471   8.052
30042SOL     OW93919   9.531   5.038   9.292
30042SOL    HW193920   9.466   4.965   9.271
30042SOL    HW293921   9.535   5.052   9.390
30043SOL     OW93922   9.389   4.964   8.101
30043SOL    HW193923   9.388   4.917   8.189
30043SOL    HW293924   9.471   4.936   8.050
30044SOL     OW93925   9.982   5.115   9.072
30044SOL    HW193926   9.904   5.065   9.110
30044SOL    HW293927   9.979   5.210   9.103
30045SOL     OW93928   9.738   4.148   7.968
30045SOL    HW193929   9.768   4.076   7.906
30045SOL    HW293930   9.699   4.108   8.051
30046SOL     OW93931   9.627   4.271   8.728
30046SOL    HW193932   9.665   4.212   8.800
30046SOL    HW293933   9.667   4.245   8.640
30047SOL     OW93934   9.349   4.801   7.748
30047SOL    HW193935   9.448   4.790   7.739
30047SOL    HW293936   9.309   4.715   7.780
30048SOL     OW93937   9.540   4.352   9.423
30048SOL    HW193938   9.447   4.350   9.460
30048SOL    HW293939   9.541   4.313   9.331
30049SOL     OW93940   9.541   5.437   9.793
30049SOL    HW193941   9.575   5.514   9.847
30049SOL    HW293942   9.585   5.437   9.703
30050SOL     OW93943   9.540   5.158   9.848
30050SOL    HW193944   9.514   5.254   9.848
30050SOL    HW293945   9.469   5.104   9.893
30051SOL     OW93946   9.432   4.367   9.873
30051SOL    HW193947   9.387   4.279   9.890
30051SOL    HW293948   9.431   4.421   9.957
30052SOL     OW93949   9.337   5.320   9.427
30052SOL    HW193950   9.318   5.224   9.448
30052SOL    HW293951   9.304   5.378   9.502
30053SOL     OW93952  10.119   3.728   9.812
30053SOL    HW193953  10.159   3.819   9.803
30053SOL    HW293954  10.019   3.736   9.818
30054SOL     OW93955   9.908   4.453   9.580
30054SOL    HW193956   9.932   4.522   9.512
30054SOL    HW293957   9.830   4.486   9.634
30055SOL     OW93958   9.386   4.535  10.099
30055SOL    HW193959   9.485   4.523  10.108
30055SOL    HW293960   9.362   4.630  10.120
30056SOL     OW93961  10.175   4.072   9.505
30056SOL    HW193962  10.234   4.135   9.456
30056SOL    HW293963  10.194   3.978   9.476
30057SOL     OW93964   9.661   5.525  10.163
30057SOL    HW193965   9.711   5.439  10.169
30057SOL    HW293966   9.726   5.602  10.160
30058SOL     OW93967   9.631   4.667   9.552
30058SOL    HW193968   9.713   4.706   9.510
30058SOL    HW293969   9.604   4.585   9.503
30059SOL     OW93970   9.774   5.467   9.633
30059SOL    HW193971   9.807   5.506   9.719
30059SOL    HW293972   9.850   5.460   9.568
30060SOL     OW93973   9.692   4.424   9.790
30060SOL    HW193974   9.737   4.334   9.787
30060SOL    HW293975   9.598   4.413   9.823
30061SOL     OW93976   9.924   3.846   9.427
30061SOL    HW193977  10.022   3.824   9.434
30061SOL    HW293978   9.893   3.829   9.334
30062SOL     OW93979   9.849   3.788   9.822
30062SOL    HW193980   9.768   3.789   9.880
30062SOL    HW293981   9.852   3.871   9.767
30063SOL     OW93982   9.607   3.759   9.481
30063SOL    HW193983   9.656   3.843   9.460
30063SOL    HW293984   9.669   3.694   9.526
30064SOL     OW93985  10.245   3.960   9.790
30064SOL    HW193986  10.197   4.001   9.712
30064SOL    HW293987  10.344   3.958   9.771
30065SOL     OW93988   9.769   4.876  10.051
30065SOL    HW193989   9.698   4.849  10.116
30065SOL    HW293990   9.743   4.848   9.958
30066SOL     OW93991   9.837   3.980   9.638
30066SOL    HW193992   9.864   3.921   9.563
30066SOL    HW293993   9.837   4.075   9.607
30067SOL     OW93994   9.677   4.824   9.811
30067SOL    HW193995   9.670   4.907   9.755
30067SOL    HW293996   9.681   4.744   9.751
30068SOL     OW93997   9.617   3.787   9.928
30068SOL    HW193998   9.606   3.881   9.961
30068SOL    HW293999   9.612   3.724  10.005
30069SOL     OW94000   9.318   5.050   9.510
30069SOL    HW194001   9.225   5.071   9.479
30069SOL    HW294002   9.328   4.951   9.523
30070SOL     OW94003  10.125   4.296   9.635
30070SOL    HW194004  10.132   4.207   9.589
30070SOL    HW294005  10.031   4.330   9.627
30071SOL     OW94006   9.783   4.224   9.501
30071SOL    HW194007   9.844   4.304   9.505
30071SOL    HW294008   9.688   4.255   9.508
30072SOL     OW94009   9.900   5.211   9.801
30072SOL    HW194010   9.942   5.153   9.731
30072SOL    HW294011   9.856   5.290   9.757
30073SOL     OW94012   9.565   5.072   9.600
30073SOL    HW194013   9.469   5.073   9.573
30073SOL    HW294014   9.577   5.125   9.684
30074SOL     OW94015   9.385   4.069   9.343
30074SOL    HW194016   9.293   4.041   9.314
30074SOL    HW294017   9.416   4.146   9.287
30075SOL     OW94018   9.382   3.890   9.628
30075SOL    HW194019   9.365   3.973   9.574
30075SOL    HW294020   9.472   3.853   9.606
30076SOL     OW94021   9.904   4.469   9.962
30076SOL    HW194022   9.954   4.554   9.943
30076SOL    HW294023   9.816   4.471   9.914
30077SOL     OW94024   9.389   4.964   9.963
30077SOL    HW194025   9.388   4.917  10.051
30077SOL    HW294026   9.471   4.936   9.912
30078SOL     OW94027   9.738   4.148   9.830
30078SOL    HW194028   9.768   4.076   9.768
30078SOL    HW294029   9.699   4.108   9.913
30079SOL     OW94030   9.349   4.801   9.610
30079SOL    HW194031   9.448   4.790   9.601
30079SOL    HW294032   9.309   4.715   9.642
30080SOL     OW94033   9.540   6.214   0.113
30080SOL    HW194034   9.447   6.212   0.150
30080SOL    HW294035   9.541   6.175   0.021
30081SOL     OW94036   9.329   5.954   0.647
30081SOL    HW194037   9.247   5.997   0.686
30081SOL    HW294038   9.301   5.881   0.584
30082SOL     OW94039  10.160   6.384   1.823
30082SOL    HW194040  10.156   6.460   1.888
30082SOL    HW294041  10.182   6.420   1.732
30083SOL     OW94042   9.748   5.978   1.499
30083SOL    HW194043   9.830   5.922   1.508
30083SOL    HW294044   9.667   5.920   1.503
30084SOL     OW94045   9.541   7.299   0.483
30084SOL    HW194046   9.575   7.376   0.537
30084SOL    HW294047   9.585   7.299   0.393
30085SOL     OW94048   9.432   6.229   0.563
30085SOL    HW194049   9.387   6.141   0.580
30085SOL    HW294050   9.431   6.283   0.647
30086SOL     OW94051   9.337   7.182   0.117
30086SOL    HW194052   9.318   7.086   0.138
30086SOL    HW294053   9.304   7.240   0.192
30087SOL     OW94054   9.423   6.323   1.597
30087SOL    HW194055   9.511   6.310   1.642
30087SOL    HW294056   9.410   6.420   1.575
30088SOL     OW94057   9.923   6.951   0.726
30088SOL    HW194058   9.874   6.864   0.735
30088SOL    HW294059   9.900   6.994   0.639
30089SOL     OW94060  10.119   5.590   0.502
30089SOL    HW194061  10.159   5.681   0.493
30089SOL    HW294062  10.019   5.598   0.508
30090SOL     OW94063   9.627   5.837   1.801
30090SOL    HW194064   9.698   5.908   1.807
30090SOL    HW294065   9.539   5.876   1.829
30091SOL     OW94066   9.386   6.397   0.789
30091SOL    HW194067   9.485   6.385   0.798
30091SOL    HW294068   9.362   6.492   0.810
30092SOL     OW94069   9.440   7.407   1.571
30092SOL    HW194070   9.430   7.392   1.670
30092SOL    HW294071   9.354   7.443   1.535
30093SOL     OW94072  10.175   5.934   0.195
30093SOL    HW194073  10.234   5.997   0.146
30093SOL    HW294074  10.194   5.840   0.166
30094SOL     OW94075   9.860   5.782   0.885
30094SOL    HW194076   9.855   5.777   0.985
30094SOL    HW294077   9.862   5.878   0.856
30095SOL     OW94078   9.661   7.387   0.853
30095SOL    HW194079   9.711   7.301   0.859
30095SOL    HW294080   9.726   7.464   0.850
30096SOL     OW94081   9.631   6.529   0.242
30096SOL    HW194082   9.713   6.568   0.200
30096SOL    HW294083   9.604   6.447   0.193
30097SOL     OW94084   9.771   6.852   1.727
30097SOL    HW194085   9.721   6.853   1.641
30097SOL    HW294086   9.708   6.834   1.803
30098SOL     OW94087   9.512   5.871   1.498
30098SOL    HW194088   9.432   5.931   1.485
30098SOL    HW294089   9.502   5.822   1.584
30099SOL     OW94090   9.774   7.329   0.323
30099SOL    HW194091   9.807   7.368   0.409
30099SOL    HW294092   9.850   7.322   0.258
30100SOL     OW94093   9.559   7.371   1.241
30100SOL    HW194094   9.616   7.306   1.291
30100SOL    HW294095   9.543   7.338   1.148
30101SOL     OW94096   9.692   6.286   0.480
30101SOL    HW194097   9.737   6.196   0.477
30101SOL    HW294098   9.598   6.275   0.513
30102SOL     OW94099   9.924   5.708   0.117
30102SOL    HW194100  10.022   5.686   0.124
30102SOL    HW294101   9.893   5.691   0.024
30103SOL     OW94102  10.113   6.988   0.924
30103SOL    HW194103  10.203   7.002   0.882
30103SOL    HW294104  10.042   6.990   0.853
30104SOL     OW94105   9.849   5.650   0.512
30104SOL    HW194106   9.768   5.651   0.570
30104SOL    HW294107   9.852   5.733   0.457
30105SOL     OW94108  10.245   5.822   0.480
30105SOL    HW194109  10.197   5.863   0.402
30105SOL    HW294110  10.344   5.820   0.461
30106SOL     OW94111   9.388   6.142   1.386
30106SOL    HW194112   9.480   6.141   1.345
30106SOL    HW294113   9.382   6.216   1.453
30107SOL     OW94114   9.871   5.808   1.147
30107SOL    HW194115   9.909   5.724   1.184
30107SOL    HW294116   9.783   5.827   1.191
30108SOL     OW94117   9.837   5.842   0.328
30108SOL    HW194118   9.864   5.783   0.253
30108SOL    HW294119   9.837   5.937   0.297
30109SOL     OW94120   9.374   7.150   1.331
30109SOL    HW194121   9.328   7.232   1.297
30109SOL    HW294122   9.472   7.169   1.340
30110SOL     OW94123   9.876   6.123   0.865
30110SOL    HW194124   9.888   6.189   0.791
30110SOL    HW294125   9.922   6.157   0.948
30111SOL     OW94126   9.664   7.096   1.329
30111SOL    HW194127   9.643   7.052   1.242
30111SOL    HW294128   9.761   7.122   1.332
30112SOL     OW94129   9.814   5.636   1.740
30112SOL    HW194130   9.772   5.579   1.670
30112SOL    HW294131   9.748   5.705   1.772
30113SOL     OW94132   9.617   5.799   1.231
30113SOL    HW194133   9.594   5.836   1.321
30113SOL    HW294134   9.587   5.704   1.225
30114SOL     OW94135   9.347   6.896   1.282
30114SOL    HW194136   9.400   6.847   1.350
30114SOL    HW294137   9.369   6.994   1.287
30115SOL     OW94138   9.617   5.649   0.618
30115SOL    HW194139   9.606   5.743   0.651
30115SOL    HW294140   9.612   5.586   0.695
30116SOL     OW94141   9.660   6.484   1.804
30116SOL    HW194142   9.736   6.528   1.852
30116SOL    HW294143   9.695   6.437   1.722
30117SOL     OW94144   9.649   6.095   1.006
30117SOL    HW194145   9.597   6.012   0.989
30117SOL    HW294146   9.726   6.100   0.942
30118SOL     OW94147   9.318   6.912   0.200
30118SOL    HW194148   9.225   6.933   0.169
30118SOL    HW294149   9.328   6.813   0.213
30119SOL     OW94150   9.398   7.387   0.927
30119SOL    HW194151   9.356   7.301   0.900
30119SOL    HW294152   9.492   7.390   0.893
30120SOL     OW94153   9.814   7.154   0.910
30120SOL    HW194154   9.880   7.228   0.919
30120SOL    HW294155   9.858   7.075   0.868
30121SOL     OW94156   9.350   6.130   1.114
30121SOL    HW194157   9.435   6.097   1.073
30121SOL    HW294158   9.363   6.145   1.212
30122SOL     OW94159   9.499   6.106   1.722
30122SOL    HW194160   9.558   6.066   1.652
30122SOL    HW294161   9.441   6.177   1.681
30123SOL     OW94162  10.125   6.158   0.325
30123SOL    HW194163  10.132   6.069   0.279
30123SOL    HW294164  10.031   6.192   0.317
30124SOL     OW94165   9.562   7.150   1.744
30124SOL    HW194166   9.532   7.207   1.820
30124SOL    HW294167   9.555   7.053   1.770
30125SOL     OW94168   9.783   6.086   0.191
30125SOL    HW194169   9.844   6.166   0.195
30125SOL    HW294170   9.688   6.117   0.198
30126SOL     OW94171   9.469   6.723   1.466
30126SOL    HW194172   9.491   6.662   1.542
30126SOL    HW294173   9.479   6.674   1.380
30127SOL     OW94174   9.393   6.844   1.022
30127SOL    HW194175   9.388   6.843   1.122
30127SOL    HW294176   9.310   6.803   0.984
30128SOL     OW94177   9.998   7.248   1.716
30128SOL    HW194178   9.942   7.329   1.725
30128SOL    HW294179  10.050   7.252   1.630
30129SOL     OW94180   9.440   7.380   1.851
30129SOL    HW194181   9.399   7.306   1.904
30129SOL    HW294182   9.504   7.431   1.909
30130SOL     OW94183   9.573   5.912   0.720
30130SOL    HW194184   9.494   5.963   0.686
30130SOL    HW294185   9.564   5.897   0.818
30131SOL     OW94186   9.682   6.874   1.490
30131SOL    HW194187   9.669   6.967   1.456
30131SOL    HW294188   9.598   6.822   1.477
30132SOL     OW94189   9.900   7.073   0.491
30132SOL    HW194190   9.942   7.015   0.421
30132SOL    HW294191   9.856   7.152   0.447
30133SOL     OW94192   9.565   6.934   0.290
30133SOL    HW194193   9.469   6.935   0.263
30133SOL    HW294194   9.577   6.987   0.374
30134SOL     OW94195   9.415   6.599   1.726
30134SOL    HW194196   9.338   6.566   1.780
30134SOL    HW294197   9.500   6.569   1.768
30135SOL     OW94198   9.385   5.931   0.033
30135SOL    HW194199   9.293   5.903   0.004
30135SOL    HW294200   9.416   6.008  -0.023
30136SOL     OW94201   9.382   5.752   0.318
30136SOL    HW194202   9.365   5.835   0.264
30136SOL    HW294203   9.472   5.715   0.296
30137SOL     OW94204   9.923   6.428   1.431
30137SOL    HW194205   9.979   6.509   1.414
30137SOL    HW294206   9.982   6.348   1.434
30138SOL     OW94207   9.700   7.327   1.560
30138SOL    HW194208   9.609   7.368   1.558
30138SOL    HW294209   9.693   7.233   1.592
30139SOL     OW94210   9.904   6.331   0.652
30139SOL    HW194211   9.954   6.416   0.633
30139SOL    HW294212   9.816   6.333   0.604
30140SOL     OW94213   9.531   6.900   1.844
30140SOL    HW194214   9.466   6.827   1.823
30140SOL    HW294215   9.535   6.914   1.942
30141SOL     OW94216   9.982   6.977   1.624
30141SOL    HW194217   9.904   6.927   1.662
30141SOL    HW294218   9.979   7.072   1.655
30142SOL     OW94219   9.738   6.010   0.520
30142SOL    HW194220   9.768   5.938   0.458
30142SOL    HW294221   9.699   5.970   0.603
30143SOL     OW94222   9.627   6.133   1.280
30143SOL    HW194223   9.665   6.074   1.352
30143SOL    HW294224   9.667   6.107   1.192
30144SOL     OW94225   9.349   6.663   0.300
30144SOL    HW194226   9.448   6.652   0.291
30144SOL    HW294227   9.309   6.577   0.332
30145SOL     OW94228   9.540   6.214   1.975
30145SOL    HW194229   9.447   6.212   2.012
30145SOL    HW294230   9.541   6.175   1.883
30146SOL     OW94231   9.329   5.954   2.509
30146SOL    HW194232   9.247   5.997   2.548
30146SOL    HW294233   9.301   5.881   2.446
30147SOL     OW94234   9.879   6.861   3.027
30147SOL    HW194235   9.786   6.854   2.990
30147SOL    HW294236   9.890   6.950   3.071
30148SOL     OW94237  10.160   6.384   3.685
30148SOL    HW194238  10.156   6.460   3.750
30148SOL    HW294239  10.182   6.420   3.594
30149SOL     OW94240   9.645   7.021   2.923
30149SOL    HW194241   9.567   6.990   2.870
30149SOL    HW294242   9.703   7.079   2.866
30150SOL     OW94243   9.748   5.978   3.361
30150SOL    HW194244   9.830   5.922   3.370
30150SOL    HW294245   9.667   5.920   3.365
30151SOL     OW94246   9.541   7.299   2.345
30151SOL    HW194247   9.575   7.376   2.399
30151SOL    HW294248   9.585   7.299   2.255
30152SOL     OW94249   9.540   7.020   2.400
30152SOL    HW194250   9.514   7.116   2.400
30152SOL    HW294251   9.469   6.966   2.445
30153SOL     OW94252   9.550   6.677   2.748
30153SOL    HW194253   9.564   6.593   2.800
30153SOL    HW294254   9.495   6.741   2.803
30154SOL     OW94255   9.432   6.229   2.425
30154SOL    HW194256   9.387   6.141   2.442
30154SOL    HW294257   9.431   6.283   2.509
30155SOL     OW94258   9.337   7.182   1.979
30155SOL    HW194259   9.318   7.086   2.000
30155SOL    HW294260   9.304   7.240   2.054
30156SOL     OW94261   9.423   6.323   3.459
30156SOL    HW194262   9.511   6.310   3.504
30156SOL    HW294263   9.410   6.420   3.437
30157SOL     OW94264   9.507   6.562   3.126
30157SOL    HW194265   9.596   6.517   3.112
30157SOL    HW294266   9.434   6.497   3.107
30158SOL     OW94267   9.627   5.837   3.663
30158SOL    HW194268   9.698   5.908   3.669
30158SOL    HW294269   9.539   5.876   3.691
30159SOL     OW94270   9.908   6.315   2.132
30159SOL    HW194271   9.932   6.384   2.064
30159SOL    HW294272   9.830   6.348   2.186
30160SOL     OW94273   9.386   6.397   2.651
30160SOL    HW194274   9.485   6.385   2.660
30160SOL    HW294275   9.362   6.492   2.672
30161SOL     OW94276   9.440   7.407   3.433
30161SOL    HW194277   9.430   7.392   3.532
30161SOL    HW294278   9.354   7.443   3.397
30162SOL     OW94279   9.661   7.387   2.715
30162SOL    HW194280   9.711   7.301   2.721
30162SOL    HW294281   9.726   7.464   2.712
30163SOL     OW94282   9.631   6.529   2.104
30163SOL    HW194283   9.713   6.568   2.062
30163SOL    HW294284   9.604   6.447   2.055
30164SOL     OW94285   9.771   6.852   3.589
30164SOL    HW194286   9.721   6.853   3.503
30164SOL    HW294287   9.708   6.834   3.665
30165SOL     OW94288   9.512   5.871   3.360
30165SOL    HW194289   9.432   5.931   3.347
30165SOL    HW294290   9.502   5.822   3.446
30166SOL     OW94291   9.774   7.329   2.185
30166SOL    HW194292   9.807   7.368   2.271
30166SOL    HW294293   9.850   7.322   2.120
30167SOL     OW94294   9.559   7.371   3.103
30167SOL    HW194295   9.616   7.306   3.153
30167SOL    HW294296   9.543   7.338   3.010
30168SOL     OW94297   9.692   6.286   2.342
30168SOL    HW194298   9.737   6.196   2.339
30168SOL    HW294299   9.598   6.275   2.375
30169SOL     OW94300   9.924   5.708   1.979
30169SOL    HW194301  10.022   5.686   1.986
30169SOL    HW294302   9.893   5.691   1.886
30170SOL     OW94303   9.607   5.621   2.033
30170SOL    HW194304   9.656   5.705   2.012
30170SOL    HW294305   9.669   5.556   2.078
30171SOL     OW94306   9.769   6.738   2.603
30171SOL    HW194307   9.698   6.711   2.668
30171SOL    HW294308   9.743   6.710   2.510
30172SOL     OW94309   9.388   6.142   3.248
30172SOL    HW194310   9.480   6.141   3.207
30172SOL    HW294311   9.382   6.216   3.315
30173SOL     OW94312   9.871   5.808   3.009
30173SOL    HW194313   9.909   5.724   3.046
30173SOL    HW294314   9.783   5.827   3.053
30174SOL     OW94315   9.720   6.399   3.113
30174SOL    HW194316   9.806   6.411   3.163
30174SOL    HW294317   9.678   6.312   3.140
30175SOL     OW94318   9.374   7.150   3.193
30175SOL    HW194319   9.328   7.232   3.159
30175SOL    HW294320   9.472   7.169   3.202
30176SOL     OW94321   9.677   6.686   2.363
30176SOL    HW194322   9.670   6.769   2.307
30176SOL    HW294323   9.681   6.606   2.303
30177SOL     OW94324   9.876   6.123   2.727
30177SOL    HW194325   9.888   6.189   2.653
30177SOL    HW294326   9.922   6.157   2.810
30178SOL     OW94327   9.664   7.096   3.191
30178SOL    HW194328   9.643   7.052   3.104
30178SOL    HW294329   9.761   7.122   3.194
30179SOL     OW94330   9.712   6.337   3.460
30179SOL    HW194331   9.780   6.392   3.413
30179SOL    HW294332   9.752   6.249   3.487
30180SOL     OW94333   9.814   5.636   3.602
30180SOL    HW194334   9.772   5.579   3.532
30180SOL    HW294335   9.748   5.705   3.634
30181SOL     OW94336   9.883   6.456   2.891
30181SOL    HW194337   9.927   6.545   2.882
30181SOL    HW294338   9.820   6.456   2.968
30182SOL     OW94339   9.347   6.896   3.144
30182SOL    HW194340   9.400   6.847   3.212
30182SOL    HW294341   9.369   6.994   3.149
30183SOL     OW94342   9.660   6.484   3.666
30183SOL    HW194343   9.736   6.528   3.714
30183SOL    HW294344   9.695   6.437   3.584
30184SOL     OW94345   9.629   6.396   2.811
30184SOL    HW194346   9.722   6.432   2.816
30184SOL    HW294347   9.623   6.311   2.863
30185SOL     OW94348   9.649   6.095   2.868
30185SOL    HW194349   9.597   6.012   2.851
30185SOL    HW294350   9.726   6.100   2.804
30186SOL     OW94351   9.398   7.387   2.789
30186SOL    HW194352   9.356   7.301   2.762
30186SOL    HW294353   9.492   7.390   2.755
30187SOL     OW94354   9.814   7.154   2.772
30187SOL    HW194355   9.880   7.228   2.781
30187SOL    HW294356   9.858   7.075   2.730
30188SOL     OW94357   9.350   6.130   2.976
30188SOL    HW194358   9.435   6.097   2.935
30188SOL    HW294359   9.363   6.145   3.074
30189SOL     OW94360   9.499   6.106   3.584
30189SOL    HW194361   9.558   6.066   3.514
30189SOL    HW294362   9.441   6.177   3.543
30190SOL     OW94363   9.783   6.086   2.053
30190SOL    HW194364   9.844   6.166   2.057
30190SOL    HW294365   9.688   6.117   2.060
30191SOL     OW94366   9.469   6.723   3.328
30191SOL    HW194367   9.491   6.662   3.404
30191SOL    HW294368   9.479   6.674   3.242
30192SOL     OW94369   9.393   6.844   2.884
30192SOL    HW194370   9.388   6.843   2.984
30192SOL    HW294371   9.310   6.803   2.846
30193SOL     OW94372   9.998   7.248   3.578
30193SOL    HW194373   9.942   7.329   3.587
30193SOL    HW294374  10.050   7.252   3.492
30194SOL     OW94375   9.682   6.874   3.352
30194SOL    HW194376   9.669   6.967   3.318
30194SOL    HW294377   9.598   6.822   3.339
30195SOL     OW94378   9.900   7.073   2.353
30195SOL    HW194379   9.942   7.015   2.283
30195SOL    HW294380   9.856   7.152   2.309
30196SOL     OW94381   9.565   6.934   2.152
30196SOL    HW194382   9.469   6.935   2.125
30196SOL    HW294383   9.577   6.987   2.236
30197SOL     OW94384   9.415   6.599   3.588
30197SOL    HW194385   9.338   6.566   3.642
30197SOL    HW294386   9.500   6.569   3.630
30198SOL     OW94387   9.982   5.789   3.351
30198SOL    HW194388  10.072   5.773   3.311
30198SOL    HW294389   9.990   5.794   3.450
30199SOL     OW94390   9.385   5.931   1.895
30199SOL    HW194391   9.293   5.903   1.866
30199SOL    HW294392   9.416   6.008   1.839
30200SOL     OW94393   9.382   5.752   2.180
30200SOL    HW194394   9.365   5.835   2.126
30200SOL    HW294395   9.472   5.715   2.158
30201SOL     OW94396   9.923   6.428   3.293
30201SOL    HW194397   9.979   6.509   3.276
30201SOL    HW294398   9.982   6.348   3.296
30202SOL     OW94399   9.700   7.327   3.422
30202SOL    HW194400   9.609   7.368   3.420
30202SOL    HW294401   9.693   7.233   3.454
30203SOL     OW94402   9.904   6.331   2.514
30203SOL    HW194403   9.954   6.416   2.495
30203SOL    HW294404   9.816   6.333   2.466
30204SOL     OW94405   9.531   6.900   3.706
30204SOL    HW194406   9.466   6.827   3.685
30204SOL    HW294407   9.535   6.914   3.804
30205SOL     OW94408   9.389   6.826   2.515
30205SOL    HW194409   9.388   6.779   2.603
30205SOL    HW294410   9.471   6.798   2.464
30206SOL     OW94411   9.982   6.977   3.486
30206SOL    HW194412   9.904   6.927   3.524
30206SOL    HW294413   9.979   7.072   3.517
30207SOL     OW94414   9.627   6.133   3.142
30207SOL    HW194415   9.665   6.074   3.214
30207SOL    HW294416   9.667   6.107   3.054
30208SOL     OW94417   9.349   6.663   2.162
30208SOL    HW194418   9.448   6.652   2.153
30208SOL    HW294419   9.309   6.577   2.194
30209SOL     OW94420   9.540   6.214   3.837
30209SOL    HW194421   9.447   6.212   3.874
30209SOL    HW294422   9.541   6.175   3.745
30210SOL     OW94423   9.535   5.861   4.720
30210SOL    HW194424   9.570   5.844   4.812
30210SOL    HW294425   9.447   5.816   4.708
30211SOL     OW94426   9.329   5.954   4.371
30211SOL    HW194427   9.247   5.997   4.410
30211SOL    HW294428   9.301   5.881   4.308
30212SOL     OW94429   9.879   6.861   4.889
30212SOL    HW194430   9.786   6.854   4.852
30212SOL    HW294431   9.890   6.950   4.933
30213SOL     OW94432  10.160   6.384   5.547
30213SOL    HW194433  10.156   6.460   5.612
30213SOL    HW294434  10.182   6.420   5.456
30214SOL     OW94435   9.645   7.021   4.785
30214SOL    HW194436   9.567   6.990   4.732
30214SOL    HW294437   9.703   7.079   4.728
30215SOL     OW94438   9.748   5.978   5.223
30215SOL    HW194439   9.830   5.922   5.232
30215SOL    HW294440   9.667   5.920   5.227
30216SOL     OW94441   9.541   7.299   4.207
30216SOL    HW194442   9.575   7.376   4.261
30216SOL    HW294443   9.585   7.299   4.117
30217SOL     OW94444   9.540   7.020   4.262
30217SOL    HW194445   9.514   7.116   4.262
30217SOL    HW294446   9.469   6.966   4.307
30218SOL     OW94447   9.432   6.229   4.287
30218SOL    HW194448   9.387   6.141   4.304
30218SOL    HW294449   9.431   6.283   4.371
30219SOL     OW94450   9.923   6.951   4.450
30219SOL    HW194451   9.874   6.864   4.459
30219SOL    HW294452   9.900   6.994   4.363
30220SOL     OW94453  10.119   5.590   4.226
30220SOL    HW194454  10.159   5.681   4.217
30220SOL    HW294455  10.019   5.598   4.232
30221SOL     OW94456   9.507   6.562   4.988
30221SOL    HW194457   9.596   6.517   4.974
30221SOL    HW294458   9.434   6.497   4.969
30222SOL     OW94459   9.627   5.837   5.525
30222SOL    HW194460   9.698   5.908   5.531
30222SOL    HW294461   9.539   5.876   5.553
30223SOL     OW94462   9.908   6.315   3.994
30223SOL    HW194463   9.932   6.384   3.926
30223SOL    HW294464   9.830   6.348   4.048
30224SOL     OW94465   9.386   6.397   4.513
30224SOL    HW194466   9.485   6.385   4.522
30224SOL    HW294467   9.362   6.492   4.534
30225SOL     OW94468   9.440   7.407   5.295
30225SOL    HW194469   9.430   7.392   5.394
30225SOL    HW294470   9.354   7.443   5.259
30226SOL     OW94471  10.175   5.934   3.919
30226SOL    HW194472  10.234   5.997   3.870
30226SOL    HW294473  10.194   5.840   3.890
30227SOL     OW94474   9.860   5.782   4.609
30227SOL    HW194475   9.855   5.777   4.709
30227SOL    HW294476   9.862   5.878   4.580
30228SOL     OW94477   9.661   7.387   4.577
30228SOL    HW194478   9.711   7.301   4.583
30228SOL    HW294479   9.726   7.464   4.574
30229SOL     OW94480   9.631   6.529   3.966
30229SOL    HW194481   9.713   6.568   3.924
30229SOL    HW294482   9.604   6.447   3.917
30230SOL     OW94483   9.771   6.852   5.451
30230SOL    HW194484   9.721   6.853   5.365
30230SOL    HW294485   9.708   6.834   5.527
30231SOL     OW94486   9.512   5.871   5.222
30231SOL    HW194487   9.432   5.931   5.209
30231SOL    HW294488   9.502   5.822   5.308
30232SOL     OW94489   9.774   7.329   4.047
30232SOL    HW194490   9.807   7.368   4.133
30232SOL    HW294491   9.850   7.322   3.982
30233SOL     OW94492   9.559   7.371   4.965
30233SOL    HW194493   9.616   7.306   5.015
30233SOL    HW294494   9.543   7.338   4.872
30234SOL     OW94495   9.692   6.286   4.204
30234SOL    HW194496   9.737   6.196   4.201
30234SOL    HW294497   9.598   6.275   4.237
30235SOL     OW94498   9.924   5.708   3.841
30235SOL    HW194499  10.022   5.686   3.848
30235SOL    HW294500   9.893   5.691   3.748
30236SOL     OW94501  10.113   6.988   4.648
30236SOL    HW194502  10.203   7.002   4.606
30236SOL    HW294503  10.042   6.990   4.577
30237SOL     OW94504   9.849   5.650   4.236
30237SOL    HW194505   9.768   5.651   4.294
30237SOL    HW294506   9.852   5.733   4.181
30238SOL     OW94507   9.607   5.621   3.895
30238SOL    HW194508   9.656   5.705   3.874
30238SOL    HW294509   9.669   5.556   3.940
30239SOL     OW94510  10.245   5.822   4.204
30239SOL    HW194511  10.197   5.863   4.126
30239SOL    HW294512  10.344   5.820   4.185
30240SOL     OW94513   9.388   6.142   5.110
30240SOL    HW194514   9.480   6.141   5.069
30240SOL    HW294515   9.382   6.216   5.177
30241SOL     OW94516   9.871   5.808   4.871
30241SOL    HW194517   9.909   5.724   4.908
30241SOL    HW294518   9.783   5.827   4.915
30242SOL     OW94519   9.837   5.842   4.052
30242SOL    HW194520   9.864   5.783   3.977
30242SOL    HW294521   9.837   5.937   4.021
30243SOL     OW94522   9.720   6.399   4.975
30243SOL    HW194523   9.806   6.411   5.025
30243SOL    HW294524   9.678   6.312   5.002
30244SOL     OW94525   9.374   7.150   5.055
30244SOL    HW194526   9.328   7.232   5.021
30244SOL    HW294527   9.472   7.169   5.064
30245SOL     OW94528   9.677   6.686   4.225
30245SOL    HW194529   9.670   6.769   4.169
30245SOL    HW294530   9.681   6.606   4.165
30246SOL     OW94531   9.876   6.123   4.589
30246SOL    HW194532   9.888   6.189   4.515
30246SOL    HW294533   9.922   6.157   4.672
30247SOL     OW94534   9.664   7.096   5.053
30247SOL    HW194535   9.643   7.052   4.966
30247SOL    HW294536   9.761   7.122   5.056
30248SOL     OW94537   9.712   6.337   5.322
30248SOL    HW194538   9.780   6.392   5.275
30248SOL    HW294539   9.752   6.249   5.349
30249SOL     OW94540   9.617   5.799   4.955
30249SOL    HW194541   9.594   5.836   5.045
30249SOL    HW294542   9.587   5.704   4.949
30250SOL     OW94543   9.347   6.896   5.006
30250SOL    HW194544   9.400   6.847   5.074
30250SOL    HW294545   9.369   6.994   5.011
30251SOL     OW94546   9.617   5.649   4.342
30251SOL    HW194547   9.606   5.743   4.375
30251SOL    HW294548   9.612   5.586   4.419
30252SOL     OW94549   9.660   6.484   5.528
30252SOL    HW194550   9.736   6.528   5.576
30252SOL    HW294551   9.695   6.437   5.446
30253SOL     OW94552   9.649   6.095   4.730
30253SOL    HW194553   9.597   6.012   4.713
30253SOL    HW294554   9.726   6.100   4.666
30254SOL     OW94555   9.318   6.912   3.924
30254SOL    HW194556   9.225   6.933   3.893
30254SOL    HW294557   9.328   6.813   3.937
30255SOL     OW94558   9.398   7.387   4.651
30255SOL    HW194559   9.356   7.301   4.624
30255SOL    HW294560   9.492   7.390   4.617
30256SOL     OW94561   9.814   7.154   4.634
30256SOL    HW194562   9.880   7.228   4.643
30256SOL    HW294563   9.858   7.075   4.592
30257SOL     OW94564   9.350   6.130   4.838
30257SOL    HW194565   9.435   6.097   4.797
30257SOL    HW294566   9.363   6.145   4.936
30258SOL     OW94567  10.125   6.158   4.049
30258SOL    HW194568  10.132   6.069   4.003
30258SOL    HW294569  10.031   6.192   4.041
30259SOL     OW94570   9.562   7.150   5.468
30259SOL    HW194571   9.532   7.207   5.544
30259SOL    HW294572   9.555   7.053   5.494
30260SOL     OW94573   9.783   6.086   3.915
30260SOL    HW194574   9.844   6.166   3.919
30260SOL    HW294575   9.688   6.117   3.922
30261SOL     OW94576   9.469   6.723   5.190
30261SOL    HW194577   9.491   6.662   5.266
30261SOL    HW294578   9.479   6.674   5.104
30262SOL     OW94579   9.998   7.248   5.440
30262SOL    HW194580   9.942   7.329   5.449
30262SOL    HW294581  10.050   7.252   5.354
30263SOL     OW94582   9.440   7.380   5.575
30263SOL    HW194583   9.399   7.306   5.628
30263SOL    HW294584   9.504   7.431   5.633
30264SOL     OW94585   9.573   5.912   4.444
30264SOL    HW194586   9.494   5.963   4.410
30264SOL    HW294587   9.564   5.897   4.542
30265SOL     OW94588   9.682   6.874   5.214
30265SOL    HW194589   9.669   6.967   5.180
30265SOL    HW294590   9.598   6.822   5.201
30266SOL     OW94591   9.900   7.073   4.215
30266SOL    HW194592   9.942   7.015   4.145
30266SOL    HW294593   9.856   7.152   4.171
30267SOL     OW94594   9.565   6.934   4.014
30267SOL    HW194595   9.469   6.935   3.987
30267SOL    HW294596   9.577   6.987   4.098
30268SOL     OW94597   9.415   6.599   5.450
30268SOL    HW194598   9.338   6.566   5.504
30268SOL    HW294599   9.500   6.569   5.492
30269SOL     OW94600   9.982   5.789   5.213
30269SOL    HW194601  10.072   5.773   5.173
30269SOL    HW294602   9.990   5.794   5.312
30270SOL     OW94603   9.385   5.931   3.757
30270SOL    HW194604   9.293   5.903   3.728
30270SOL    HW294605   9.416   6.008   3.701
30271SOL     OW94606   9.382   5.752   4.042
30271SOL    HW194607   9.365   5.835   3.988
30271SOL    HW294608   9.472   5.715   4.020
30272SOL     OW94609   9.923   6.428   5.155
30272SOL    HW194610   9.979   6.509   5.138
30272SOL    HW294611   9.982   6.348   5.158
30273SOL     OW94612   9.700   7.327   5.284
30273SOL    HW194613   9.609   7.368   5.282
30273SOL    HW294614   9.693   7.233   5.316
30274SOL     OW94615   9.904   6.331   4.376
30274SOL    HW194616   9.954   6.416   4.357
30274SOL    HW294617   9.816   6.333   4.328
30275SOL     OW94618   9.531   6.900   5.568
30275SOL    HW194619   9.466   6.827   5.547
30275SOL    HW294620   9.535   6.914   5.666
30276SOL     OW94621   9.982   6.977   5.348
30276SOL    HW194622   9.904   6.927   5.386
30276SOL    HW294623   9.979   7.072   5.379
30277SOL     OW94624   9.738   6.010   4.244
30277SOL    HW194625   9.768   5.938   4.182
30277SOL    HW294626   9.699   5.970   4.327
30278SOL     OW94627   9.627   6.133   5.004
30278SOL    HW194628   9.665   6.074   5.076
30278SOL    HW294629   9.667   6.107   4.916
30279SOL     OW94630   9.349   6.663   4.024
30279SOL    HW194631   9.448   6.652   4.015
30279SOL    HW294632   9.309   6.577   4.056
30280SOL     OW94633   9.540   6.214   5.699
30280SOL    HW194634   9.447   6.212   5.736
30280SOL    HW294635   9.541   6.175   5.607
30281SOL     OW94636   9.535   5.861   6.582
30281SOL    HW194637   9.570   5.844   6.674
30281SOL    HW294638   9.447   5.816   6.570
30282SOL     OW94639   9.329   5.954   6.233
30282SOL    HW194640   9.247   5.997   6.272
30282SOL    HW294641   9.301   5.881   6.170
30283SOL     OW94642   9.879   6.861   6.751
30283SOL    HW194643   9.786   6.854   6.714
30283SOL    HW294644   9.890   6.950   6.795
30284SOL     OW94645  10.160   6.384   7.409
30284SOL    HW194646  10.156   6.460   7.474
30284SOL    HW294647  10.182   6.420   7.318
30285SOL     OW94648   9.748   5.978   7.085
30285SOL    HW194649   9.830   5.922   7.094
30285SOL    HW294650   9.667   5.920   7.089
30286SOL     OW94651   9.541   7.299   6.069
30286SOL    HW194652   9.575   7.376   6.123
30286SOL    HW294653   9.585   7.299   5.979
30287SOL     OW94654   9.540   7.020   6.124
30287SOL    HW194655   9.514   7.116   6.124
30287SOL    HW294656   9.469   6.966   6.169
30288SOL     OW94657   9.432   6.229   6.149
30288SOL    HW194658   9.387   6.141   6.166
30288SOL    HW294659   9.431   6.283   6.233
30289SOL     OW94660   9.337   7.182   5.703
30289SOL    HW194661   9.318   7.086   5.724
30289SOL    HW294662   9.304   7.240   5.778
30290SOL     OW94663   9.423   6.323   7.183
30290SOL    HW194664   9.511   6.310   7.228
30290SOL    HW294665   9.410   6.420   7.161
30291SOL     OW94666   9.923   6.951   6.312
30291SOL    HW194667   9.874   6.864   6.321
30291SOL    HW294668   9.900   6.994   6.225
30292SOL     OW94669  10.119   5.590   6.088
30292SOL    HW194670  10.159   5.681   6.079
30292SOL    HW294671  10.019   5.598   6.094
30293SOL     OW94672   9.507   6.562   6.850
30293SOL    HW194673   9.596   6.517   6.836
30293SOL    HW294674   9.434   6.497   6.831
30294SOL     OW94675   9.908   6.315   5.856
30294SOL    HW194676   9.932   6.384   5.788
30294SOL    HW294677   9.830   6.348   5.910
30295SOL     OW94678   9.440   7.407   7.157
30295SOL    HW194679   9.430   7.392   7.256
30295SOL    HW294680   9.354   7.443   7.121
30296SOL     OW94681  10.175   5.934   5.781
30296SOL    HW194682  10.234   5.997   5.732
30296SOL    HW294683  10.194   5.840   5.752
30297SOL     OW94684   9.860   5.782   6.471
30297SOL    HW194685   9.855   5.777   6.571
30297SOL    HW294686   9.862   5.878   6.442
30298SOL     OW94687   9.661   7.387   6.439
30298SOL    HW194688   9.711   7.301   6.445
30298SOL    HW294689   9.726   7.464   6.436
30299SOL     OW94690   9.631   6.529   5.828
30299SOL    HW194691   9.713   6.568   5.786
30299SOL    HW294692   9.604   6.447   5.779
30300SOL     OW94693   9.771   6.852   7.313
30300SOL    HW194694   9.721   6.853   7.227
30300SOL    HW294695   9.708   6.834   7.389
30301SOL     OW94696   9.512   5.871   7.084
30301SOL    HW194697   9.432   5.931   7.071
30301SOL    HW294698   9.502   5.822   7.170
30302SOL     OW94699   9.774   7.329   5.909
30302SOL    HW194700   9.807   7.368   5.995
30302SOL    HW294701   9.850   7.322   5.844
30303SOL     OW94702   9.559   7.371   6.827
30303SOL    HW194703   9.616   7.306   6.877
30303SOL    HW294704   9.543   7.338   6.734
30304SOL     OW94705   9.692   6.286   6.066
30304SOL    HW194706   9.737   6.196   6.063
30304SOL    HW294707   9.598   6.275   6.099
30305SOL     OW94708   9.924   5.708   5.703
30305SOL    HW194709  10.022   5.686   5.710
30305SOL    HW294710   9.893   5.691   5.610
30306SOL     OW94711  10.113   6.988   6.510
30306SOL    HW194712  10.203   7.002   6.468
30306SOL    HW294713  10.042   6.990   6.439
30307SOL     OW94714   9.849   5.650   6.098
30307SOL    HW194715   9.768   5.651   6.156
30307SOL    HW294716   9.852   5.733   6.043
30308SOL     OW94717   9.607   5.621   5.757
30308SOL    HW194718   9.656   5.705   5.736
30308SOL    HW294719   9.669   5.556   5.802
30309SOL     OW94720  10.245   5.822   6.066
30309SOL    HW194721  10.197   5.863   5.988
30309SOL    HW294722  10.344   5.820   6.047
30310SOL     OW94723   9.769   6.738   6.327
30310SOL    HW194724   9.698   6.711   6.392
30310SOL    HW294725   9.743   6.710   6.234
30311SOL     OW94726   9.388   6.142   6.972
30311SOL    HW194727   9.480   6.141   6.931
30311SOL    HW294728   9.382   6.216   7.039
30312SOL     OW94729   9.871   5.808   6.733
30312SOL    HW194730   9.909   5.724   6.770
30312SOL    HW294731   9.783   5.827   6.777
30313SOL     OW94732   9.837   5.842   5.914
30313SOL    HW194733   9.864   5.783   5.839
30313SOL    HW294734   9.837   5.937   5.883
30314SOL     OW94735   9.374   7.150   6.917
30314SOL    HW194736   9.328   7.232   6.883
30314SOL    HW294737   9.472   7.169   6.926
30315SOL     OW94738   9.677   6.686   6.087
30315SOL    HW194739   9.670   6.769   6.031
30315SOL    HW294740   9.681   6.606   6.027
30316SOL     OW94741   9.876   6.123   6.451
30316SOL    HW194742   9.888   6.189   6.377
30316SOL    HW294743   9.922   6.157   6.534
30317SOL     OW94744   9.664   7.096   6.915
30317SOL    HW194745   9.643   7.052   6.828
30317SOL    HW294746   9.761   7.122   6.918
30318SOL     OW94747   9.883   6.456   6.615
30318SOL    HW194748   9.927   6.545   6.606
30318SOL    HW294749   9.820   6.456   6.692
30319SOL     OW94750   9.617   5.799   6.817
30319SOL    HW194751   9.594   5.836   6.907
30319SOL    HW294752   9.587   5.704   6.811
30320SOL     OW94753   9.617   5.649   6.204
30320SOL    HW194754   9.606   5.743   6.237
30320SOL    HW294755   9.612   5.586   6.281
30321SOL     OW94756   9.660   6.484   7.390
30321SOL    HW194757   9.736   6.528   7.438
30321SOL    HW294758   9.695   6.437   7.308
30322SOL     OW94759   9.649   6.095   6.592
30322SOL    HW194760   9.597   6.012   6.575
30322SOL    HW294761   9.726   6.100   6.528
30323SOL     OW94762   9.318   6.912   5.786
30323SOL    HW194763   9.225   6.933   5.755
30323SOL    HW294764   9.328   6.813   5.799
30324SOL     OW94765   9.398   7.387   6.513
30324SOL    HW194766   9.356   7.301   6.486
30324SOL    HW294767   9.492   7.390   6.479
30325SOL     OW94768   9.814   7.154   6.496
30325SOL    HW194769   9.880   7.228   6.505
30325SOL    HW294770   9.858   7.075   6.454
30326SOL     OW94771   9.350   6.130   6.700
30326SOL    HW194772   9.435   6.097   6.659
30326SOL    HW294773   9.363   6.145   6.798
30327SOL     OW94774   9.499   6.106   7.308
30327SOL    HW194775   9.558   6.066   7.238
30327SOL    HW294776   9.441   6.177   7.267
30328SOL     OW94777  10.125   6.158   5.911
30328SOL    HW194778  10.132   6.069   5.865
30328SOL    HW294779  10.031   6.192   5.903
30329SOL     OW94780   9.562   7.150   7.330
30329SOL    HW194781   9.532   7.207   7.406
30329SOL    HW294782   9.555   7.053   7.356
30330SOL     OW94783   9.783   6.086   5.777
30330SOL    HW194784   9.844   6.166   5.781
30330SOL    HW294785   9.688   6.117   5.784
30331SOL     OW94786   9.998   7.248   7.302
30331SOL    HW194787   9.942   7.329   7.311
30331SOL    HW294788  10.050   7.252   7.216
30332SOL     OW94789   9.440   7.380   7.437
30332SOL    HW194790   9.399   7.306   7.490
30332SOL    HW294791   9.504   7.431   7.495
30333SOL     OW94792   9.573   5.912   6.306
30333SOL    HW194793   9.494   5.963   6.272
30333SOL    HW294794   9.564   5.897   6.404
30334SOL     OW94795   9.682   6.874   7.076
30334SOL    HW194796   9.669   6.967   7.042
30334SOL    HW294797   9.598   6.822   7.063
30335SOL     OW94798   9.900   7.073   6.077
30335SOL    HW194799   9.942   7.015   6.007
30335SOL    HW294800   9.856   7.152   6.033
30336SOL     OW94801   9.565   6.934   5.876
30336SOL    HW194802   9.469   6.935   5.849
30336SOL    HW294803   9.577   6.987   5.960
30337SOL     OW94804   9.415   6.599   7.312
30337SOL    HW194805   9.338   6.566   7.366
30337SOL    HW294806   9.500   6.569   7.354
30338SOL     OW94807   9.982   5.789   7.075
30338SOL    HW194808  10.072   5.773   7.035
30338SOL    HW294809   9.990   5.794   7.174
30339SOL     OW94810   9.385   5.931   5.619
30339SOL    HW194811   9.293   5.903   5.590
30339SOL    HW294812   9.416   6.008   5.563
30340SOL     OW94813   9.382   5.752   5.904
30340SOL    HW194814   9.365   5.835   5.850
30340SOL    HW294815   9.472   5.715   5.882
30341SOL     OW94816   9.700   7.327   7.146
30341SOL    HW194817   9.609   7.368   7.144
30341SOL    HW294818   9.693   7.233   7.178
30342SOL     OW94819   9.904   6.331   6.238
30342SOL    HW194820   9.954   6.416   6.219
30342SOL    HW294821   9.816   6.333   6.190
30343SOL     OW94822   9.531   6.900   7.430
30343SOL    HW194823   9.466   6.827   7.409
30343SOL    HW294824   9.535   6.914   7.528
30344SOL     OW94825   9.982   6.977   7.210
30344SOL    HW194826   9.904   6.927   7.248
30344SOL    HW294827   9.979   7.072   7.241
30345SOL     OW94828   9.738   6.010   6.106
30345SOL    HW194829   9.768   5.938   6.044
30345SOL    HW294830   9.699   5.970   6.189
30346SOL     OW94831   9.540   6.214   7.561
30346SOL    HW194832   9.447   6.212   7.598
30346SOL    HW294833   9.541   6.175   7.469
30347SOL     OW94834   9.535   5.861   8.444
30347SOL    HW194835   9.570   5.844   8.536
30347SOL    HW294836   9.447   5.816   8.432
30348SOL     OW94837   9.329   5.954   8.095
30348SOL    HW194838   9.247   5.997   8.134
30348SOL    HW294839   9.301   5.881   8.032
30349SOL     OW94840  10.160   6.384   9.271
30349SOL    HW194841  10.156   6.460   9.336
30349SOL    HW294842  10.182   6.420   9.180
30350SOL     OW94843   9.645   7.021   8.509
30350SOL    HW194844   9.567   6.990   8.456
30350SOL    HW294845   9.703   7.079   8.452
30351SOL     OW94846   9.748   5.978   8.947
30351SOL    HW194847   9.830   5.922   8.956
30351SOL    HW294848   9.667   5.920   8.951
30352SOL     OW94849   9.541   7.299   7.931
30352SOL    HW194850   9.575   7.376   7.985
30352SOL    HW294851   9.585   7.299   7.841
30353SOL     OW94852   9.540   7.020   7.986
30353SOL    HW194853   9.514   7.116   7.986
30353SOL    HW294854   9.469   6.966   8.031
30354SOL     OW94855   9.550   6.677   8.334
30354SOL    HW194856   9.564   6.593   8.386
30354SOL    HW294857   9.495   6.741   8.389
30355SOL     OW94858   9.432   6.229   8.011
30355SOL    HW194859   9.387   6.141   8.028
30355SOL    HW294860   9.431   6.283   8.095
30356SOL     OW94861   9.337   7.182   7.565
30356SOL    HW194862   9.318   7.086   7.586
30356SOL    HW294863   9.304   7.240   7.640
30357SOL     OW94864   9.423   6.323   9.045
30357SOL    HW194865   9.511   6.310   9.090
30357SOL    HW294866   9.410   6.420   9.023
30358SOL     OW94867   9.923   6.951   8.174
30358SOL    HW194868   9.874   6.864   8.183
30358SOL    HW294869   9.900   6.994   8.087
30359SOL     OW94870   9.507   6.562   8.712
30359SOL    HW194871   9.596   6.517   8.698
30359SOL    HW294872   9.434   6.497   8.693
30360SOL     OW94873   9.627   5.837   9.249
30360SOL    HW194874   9.698   5.908   9.255
30360SOL    HW294875   9.539   5.876   9.277
30361SOL     OW94876   9.908   6.315   7.718
30361SOL    HW194877   9.932   6.384   7.650
30361SOL    HW294878   9.830   6.348   7.772
30362SOL     OW94879   9.386   6.397   8.237
30362SOL    HW194880   9.485   6.385   8.246
30362SOL    HW294881   9.362   6.492   8.258
30363SOL     OW94882   9.440   7.407   9.019
30363SOL    HW194883   9.430   7.392   9.118
30363SOL    HW294884   9.354   7.443   8.983
30364SOL     OW94885  10.175   5.934   7.643
30364SOL    HW194886  10.234   5.997   7.594
30364SOL    HW294887  10.194   5.840   7.614
30365SOL     OW94888   9.860   5.782   8.333
30365SOL    HW194889   9.855   5.777   8.433
30365SOL    HW294890   9.862   5.878   8.304
30366SOL     OW94891   9.661   7.387   8.301
30366SOL    HW194892   9.711   7.301   8.307
30366SOL    HW294893   9.726   7.464   8.298
30367SOL     OW94894   9.631   6.529   7.690
30367SOL    HW194895   9.713   6.568   7.648
30367SOL    HW294896   9.604   6.447   7.641
30368SOL     OW94897   9.771   6.852   9.175
30368SOL    HW194898   9.721   6.853   9.089
30368SOL    HW294899   9.708   6.834   9.251
30369SOL     OW94900   9.512   5.871   8.946
30369SOL    HW194901   9.432   5.931   8.933
30369SOL    HW294902   9.502   5.822   9.032
30370SOL     OW94903   9.774   7.329   7.771
30370SOL    HW194904   9.807   7.368   7.857
30370SOL    HW294905   9.850   7.322   7.706
30371SOL     OW94906   9.559   7.371   8.689
30371SOL    HW194907   9.616   7.306   8.739
30371SOL    HW294908   9.543   7.338   8.596
30372SOL     OW94909   9.692   6.286   7.928
30372SOL    HW194910   9.737   6.196   7.925
30372SOL    HW294911   9.598   6.275   7.961
30373SOL     OW94912   9.924   5.708   7.565
30373SOL    HW194913  10.022   5.686   7.572
30373SOL    HW294914   9.893   5.691   7.472
30374SOL     OW94915  10.113   6.988   8.372
30374SOL    HW194916  10.203   7.002   8.330
30374SOL    HW294917  10.042   6.990   8.301
30375SOL     OW94918  10.245   5.822   7.928
30375SOL    HW194919  10.197   5.863   7.850
30375SOL    HW294920  10.344   5.820   7.909
30376SOL     OW94921   9.769   6.738   8.189
30376SOL    HW194922   9.698   6.711   8.254
30376SOL    HW294923   9.743   6.710   8.096
30377SOL     OW94924   9.388   6.142   8.834
30377SOL    HW194925   9.480   6.141   8.793
30377SOL    HW294926   9.382   6.216   8.901
30378SOL     OW94927   9.871   5.808   8.595
30378SOL    HW194928   9.909   5.724   8.632
30378SOL    HW294929   9.783   5.827   8.639
30379SOL     OW94930   9.837   5.842   7.776
30379SOL    HW194931   9.864   5.783   7.701
30379SOL    HW294932   9.837   5.937   7.745
30380SOL     OW94933   9.374   7.150   8.779
30380SOL    HW194934   9.328   7.232   8.745
30380SOL    HW294935   9.472   7.169   8.788
30381SOL     OW94936   9.677   6.686   7.949
30381SOL    HW194937   9.670   6.769   7.893
30381SOL    HW294938   9.681   6.606   7.889
30382SOL     OW94939   9.876   6.123   8.313
30382SOL    HW194940   9.888   6.189   8.239
30382SOL    HW294941   9.922   6.157   8.396
30383SOL     OW94942   9.664   7.096   8.777
30383SOL    HW194943   9.643   7.052   8.690
30383SOL    HW294944   9.761   7.122   8.780
30384SOL     OW94945   9.712   6.337   9.046
30384SOL    HW194946   9.780   6.392   8.999
30384SOL    HW294947   9.752   6.249   9.073
30385SOL     OW94948   9.814   5.636   9.188
30385SOL    HW194949   9.772   5.579   9.118
30385SOL    HW294950   9.748   5.705   9.220
30386SOL     OW94951   9.617   5.799   8.679
30386SOL    HW194952   9.594   5.836   8.769
30386SOL    HW294953   9.587   5.704   8.673
30387SOL     OW94954   9.347   6.896   8.730
30387SOL    HW194955   9.400   6.847   8.798
30387SOL    HW294956   9.369   6.994   8.735
30388SOL     OW94957   9.617   5.649   8.066
30388SOL    HW194958   9.606   5.743   8.099
30388SOL    HW294959   9.612   5.586   8.143
30389SOL     OW94960   9.660   6.484   9.252
30389SOL    HW194961   9.736   6.528   9.300
30389SOL    HW294962   9.695   6.437   9.170
30390SOL     OW94963   9.629   6.396   8.397
30390SOL    HW194964   9.722   6.432   8.402
30390SOL    HW294965   9.623   6.311   8.449
30391SOL     OW94966   9.649   6.095   8.454
30391SOL    HW194967   9.597   6.012   8.437
30391SOL    HW294968   9.726   6.100   8.390
30392SOL     OW94969   9.318   6.912   7.648
30392SOL    HW194970   9.225   6.933   7.617
30392SOL    HW294971   9.328   6.813   7.661
30393SOL     OW94972   9.398   7.387   8.375
30393SOL    HW194973   9.356   7.301   8.348
30393SOL    HW294974   9.492   7.390   8.341
30394SOL     OW94975   9.814   7.154   8.358
30394SOL    HW194976   9.880   7.228   8.367
30394SOL    HW294977   9.858   7.075   8.316
30395SOL     OW94978   9.350   6.130   8.562
30395SOL    HW194979   9.435   6.097   8.521
30395SOL    HW294980   9.363   6.145   8.660
30396SOL     OW94981   9.499   6.106   9.170
30396SOL    HW194982   9.558   6.066   9.100
30396SOL    HW294983   9.441   6.177   9.129
30397SOL     OW94984  10.125   6.158   7.773
30397SOL    HW194985  10.132   6.069   7.727
30397SOL    HW294986  10.031   6.192   7.765
30398SOL     OW94987   9.562   7.150   9.192
30398SOL    HW194988   9.532   7.207   9.268
30398SOL    HW294989   9.555   7.053   9.218
30399SOL     OW94990   9.783   6.086   7.639
30399SOL    HW194991   9.844   6.166   7.643
30399SOL    HW294992   9.688   6.117   7.646
30400SOL     OW94993   9.469   6.723   8.914
30400SOL    HW194994   9.491   6.662   8.990
30400SOL    HW294995   9.479   6.674   8.828
30401SOL     OW94996   9.393   6.844   8.470
30401SOL    HW194997   9.388   6.843   8.570
30401SOL    HW294998   9.310   6.803   8.432
30402SOL     OW94999   9.440   7.380   9.299
30402SOL    HW195000   9.399   7.306   9.352
30402SOL    HW295001   9.504   7.431   9.357
30403SOL     OW95002   9.573   5.912   8.168
30403SOL    HW195003   9.494   5.963   8.134
30403SOL    HW295004   9.564   5.897   8.266
30404SOL     OW95005   9.900   7.073   7.939
30404SOL    HW195006   9.942   7.015   7.869
30404SOL    HW295007   9.856   7.152   7.895
30405SOL     OW95008   9.565   6.934   7.738
30405SOL    HW195009   9.469   6.935   7.711
30405SOL    HW295010   9.577   6.987   7.822
30406SOL     OW95011   9.415   6.599   9.174
30406SOL    HW195012   9.338   6.566   9.228
30406SOL    HW295013   9.500   6.569   9.216
30407SOL     OW95014   9.982   5.789   8.937
30407SOL    HW195015  10.072   5.773   8.897
30407SOL    HW295016   9.990   5.794   9.036
30408SOL     OW95017   9.385   5.931   7.481
30408SOL    HW195018   9.293   5.903   7.452
30408SOL    HW295019   9.416   6.008   7.425
30409SOL     OW95020   9.382   5.752   7.766
30409SOL    HW195021   9.365   5.835   7.712
30409SOL    HW295022   9.472   5.715   7.744
30410SOL     OW95023   9.700   7.327   9.008
30410SOL    HW195024   9.609   7.368   9.006
30410SOL    HW295025   9.693   7.233   9.040
30411SOL     OW95026   9.904   6.331   8.100
30411SOL    HW195027   9.954   6.416   8.081
30411SOL    HW295028   9.816   6.333   8.052
30412SOL     OW95029   9.531   6.900   9.292
30412SOL    HW195030   9.466   6.827   9.271
30412SOL    HW295031   9.535   6.914   9.390
30413SOL     OW95032   9.389   6.826   8.101
30413SOL    HW195033   9.388   6.779   8.189
30413SOL    HW295034   9.471   6.798   8.050
30414SOL     OW95035   9.738   6.010   7.968
30414SOL    HW195036   9.768   5.938   7.906
30414SOL    HW295037   9.699   5.970   8.051
30415SOL     OW95038   9.627   6.133   8.728
30415SOL    HW195039   9.665   6.074   8.800
30415SOL    HW295040   9.667   6.107   8.640
30416SOL     OW95041   9.349   6.663   7.748
30416SOL    HW195042   9.448   6.652   7.739
30416SOL    HW295043   9.309   6.577   7.780
30417SOL     OW95044   9.540   6.214   9.423
30417SOL    HW195045   9.447   6.212   9.460
30417SOL    HW295046   9.541   6.175   9.331
30418SOL     OW95047   9.541   7.299   9.793
30418SOL    HW195048   9.575   7.376   9.847
30418SOL    HW295049   9.585   7.299   9.703
30419SOL     OW95050   9.540   7.020   9.848
30419SOL    HW195051   9.514   7.116   9.848
30419SOL    HW295052   9.469   6.966   9.893
30420SOL     OW95053   9.432   6.229   9.873
30420SOL    HW195054   9.387   6.141   9.890
30420SOL    HW295055   9.431   6.283   9.957
30421SOL     OW95056   9.337   7.182   9.427
30421SOL    HW195057   9.318   7.086   9.448
30421SOL    HW295058   9.304   7.240   9.502
30422SOL     OW95059  10.119   5.590   9.812
30422SOL    HW195060  10.159   5.681   9.803
30422SOL    HW295061  10.019   5.598   9.818
30423SOL     OW95062   9.908   6.315   9.580
30423SOL    HW195063   9.932   6.384   9.512
30423SOL    HW295064   9.830   6.348   9.634
30424SOL     OW95065   9.386   6.397  10.099
30424SOL    HW195066   9.485   6.385  10.108
30424SOL    HW295067   9.362   6.492  10.120
30425SOL     OW95068  10.175   5.934   9.505
30425SOL    HW195069  10.234   5.997   9.456
30425SOL    HW295070  10.194   5.840   9.476
30426SOL     OW95071   9.661   7.387  10.163
30426SOL    HW195072   9.711   7.301  10.169
30426SOL    HW295073   9.726   7.464  10.160
30427SOL     OW95074   9.631   6.529   9.552
30427SOL    HW195075   9.713   6.568   9.510
30427SOL    HW295076   9.604   6.447   9.503
30428SOL     OW95077   9.774   7.329   9.633
30428SOL    HW195078   9.807   7.368   9.719
30428SOL    HW295079   9.850   7.322   9.568
30429SOL     OW95080   9.692   6.286   9.790
30429SOL    HW195081   9.737   6.196   9.787
30429SOL    HW295082   9.598   6.275   9.823
30430SOL     OW95083   9.924   5.708   9.427
30430SOL    HW195084  10.022   5.686   9.434
30430SOL    HW295085   9.893   5.691   9.334
30431SOL     OW95086   9.849   5.650   9.822
30431SOL    HW195087   9.768   5.651   9.880
30431SOL    HW295088   9.852   5.733   9.767
30432SOL     OW95089   9.607   5.621   9.481
30432SOL    HW195090   9.656   5.705   9.460
30432SOL    HW295091   9.669   5.556   9.526
30433SOL     OW95092  10.245   5.822   9.790
30433SOL    HW195093  10.197   5.863   9.712
30433SOL    HW295094  10.344   5.820   9.771
30434SOL     OW95095   9.769   6.738  10.051
30434SOL    HW195096   9.698   6.711  10.116
30434SOL    HW295097   9.743   6.710   9.958
30435SOL     OW95098   9.837   5.842   9.638
30435SOL    HW195099   9.864   5.783   9.563
30435SOL    HW295100   9.837   5.937   9.607
30436SOL     OW95101   9.677   6.686   9.811
30436SOL    HW195102   9.670   6.769   9.755
30436SOL    HW295103   9.681   6.606   9.751
30437SOL     OW95104   9.617   5.649   9.928
30437SOL    HW195105   9.606   5.743   9.961
30437SOL    HW295106   9.612   5.586  10.005
30438SOL     OW95107   9.318   6.912   9.510
30438SOL    HW195108   9.225   6.933   9.479
30438SOL    HW295109   9.328   6.813   9.523
30439SOL     OW95110  10.125   6.158   9.635
30439SOL    HW195111  10.132   6.069   9.589
30439SOL    HW295112  10.031   6.192   9.627
30440SOL     OW95113   9.783   6.086   9.501
30440SOL    HW195114   9.844   6.166   9.505
30440SOL    HW295115   9.688   6.117   9.508
30441SOL     OW95116   9.900   7.073   9.801
30441SOL    HW195117   9.942   7.015   9.731
30441SOL    HW295118   9.856   7.152   9.757
30442SOL     OW95119   9.565   6.934   9.600
30442SOL    HW195120   9.469   6.935   9.573
30442SOL    HW295121   9.577   6.987   9.684
30443SOL     OW95122   9.385   5.931   9.343
30443SOL    HW195123   9.293   5.903   9.314
30443SOL    HW295124   9.416   6.008   9.287
30444SOL     OW95125   9.382   5.752   9.628
30444SOL    HW195126   9.365   5.835   9.574
30444SOL    HW295127   9.472   5.715   9.606
30445SOL     OW95128   9.904   6.331   9.962
30445SOL    HW195129   9.954   6.416   9.943
30445SOL    HW295130   9.816   6.333   9.914
30446SOL     OW95131   9.389   6.826   9.963
30446SOL    HW195132   9.388   6.779  10.051
30446SOL    HW295133   9.471   6.798   9.912
30447SOL     OW95134   9.738   6.010   9.830
30447SOL    HW195135   9.768   5.938   9.768
30447SOL    HW295136   9.699   5.970   9.913
30448SOL     OW95137   9.349   6.663   9.610
30448SOL    HW195138   9.448   6.652   9.601
30448SOL    HW295139   9.309   6.577   9.642
30449SOL     OW95140   9.540   8.076   0.113
30449SOL    HW195141   9.447   8.074   0.150
30449SOL    HW295142   9.541   8.037   0.021
30450SOL     OW95143   9.535   7.723   0.996
30450SOL    HW195144   9.570   7.706   1.088
30450SOL    HW295145   9.447   7.678   0.984
30451SOL     OW95146   9.329   7.816   0.647
30451SOL    HW195147   9.247   7.859   0.686
30451SOL    HW295148   9.301   7.743   0.584
30452SOL     OW95149   9.879   8.723   1.165
30452SOL    HW195150   9.786   8.716   1.128
30452SOL    HW295151   9.890   8.812   1.209
30453SOL     OW95152   9.645   8.883   1.061
30453SOL    HW195153   9.567   8.852   1.008
30453SOL    HW295154   9.703   8.941   1.004
30454SOL     OW95155   9.748   7.840   1.499
30454SOL    HW195156   9.830   7.784   1.508
30454SOL    HW295157   9.667   7.782   1.503
30455SOL     OW95158   9.541   9.161   0.483
30455SOL    HW195159   9.575   9.238   0.537
30455SOL    HW295160   9.585   9.161   0.393
30456SOL     OW95161   9.540   8.882   0.538
30456SOL    HW195162   9.514   8.978   0.538
30456SOL    HW295163   9.469   8.828   0.583
30457SOL     OW95164   9.550   8.539   0.886
30457SOL    HW195165   9.564   8.455   0.938
30457SOL    HW295166   9.495   8.603   0.941
30458SOL     OW95167   9.432   8.091   0.563
30458SOL    HW195168   9.387   8.003   0.580
30458SOL    HW295169   9.431   8.145   0.647
30459SOL     OW95170   9.337   9.044   0.117
30459SOL    HW195171   9.318   8.948   0.138
30459SOL    HW295172   9.304   9.102   0.192
30460SOL     OW95173   9.423   8.185   1.597
30460SOL    HW195174   9.511   8.172   1.642
30460SOL    HW295175   9.410   8.282   1.575
30461SOL     OW95176   9.923   8.813   0.726
30461SOL    HW195177   9.874   8.726   0.735
30461SOL    HW295178   9.900   8.856   0.639
30462SOL     OW95179  10.119   7.452   0.502
30462SOL    HW195180  10.159   7.543   0.493
30462SOL    HW295181  10.019   7.460   0.508
30463SOL     OW95182   9.507   8.424   1.264
30463SOL    HW195183   9.596   8.379   1.250
30463SOL    HW295184   9.434   8.359   1.245
30464SOL     OW95185   9.627   7.699   1.801
30464SOL    HW195186   9.698   7.770   1.807
30464SOL    HW295187   9.539   7.738   1.829
30465SOL     OW95188   9.908   8.177   0.270
30465SOL    HW195189   9.932   8.246   0.202
30465SOL    HW295190   9.830   8.210   0.324
30466SOL     OW95191   9.386   8.259   0.789
30466SOL    HW195192   9.485   8.247   0.798
30466SOL    HW295193   9.362   8.354   0.810
30467SOL     OW95194   9.440   9.269   1.571
30467SOL    HW195195   9.430   9.254   1.670
30467SOL    HW295196   9.354   9.305   1.535
30468SOL     OW95197  10.175   7.796   0.195
30468SOL    HW195198  10.234   7.859   0.146
30468SOL    HW295199  10.194   7.702   0.166
30469SOL     OW95200   9.860   7.644   0.885
30469SOL    HW195201   9.855   7.639   0.985
30469SOL    HW295202   9.862   7.740   0.856
30470SOL     OW95203   9.661   9.249   0.853
30470SOL    HW195204   9.711   9.163   0.859
30470SOL    HW295205   9.726   9.326   0.850
30471SOL     OW95206   9.631   8.391   0.242
30471SOL    HW195207   9.713   8.430   0.200
30471SOL    HW295208   9.604   8.309   0.193
30472SOL     OW95209   9.771   8.714   1.727
30472SOL    HW195210   9.721   8.715   1.641
30472SOL    HW295211   9.708   8.696   1.803
30473SOL     OW95212   9.512   7.733   1.498
30473SOL    HW195213   9.432   7.793   1.485
30473SOL    HW295214   9.502   7.684   1.584
30474SOL     OW95215   9.774   9.191   0.323
30474SOL    HW195216   9.807   9.230   0.409
30474SOL    HW295217   9.850   9.184   0.258
30475SOL     OW95218   9.559   9.233   1.241
30475SOL    HW195219   9.616   9.168   1.291
30475SOL    HW295220   9.543   9.200   1.148
30476SOL     OW95221   9.692   8.148   0.480
30476SOL    HW195222   9.737   8.058   0.477
30476SOL    HW295223   9.598   8.137   0.513
30477SOL     OW95224   9.924   7.570   0.117
30477SOL    HW195225  10.022   7.548   0.124
30477SOL    HW295226   9.893   7.553   0.024
30478SOL     OW95227   9.849   7.512   0.512
30478SOL    HW195228   9.768   7.513   0.570
30478SOL    HW295229   9.852   7.595   0.457
30479SOL     OW95230  10.245   7.684   0.480
30479SOL    HW195231  10.197   7.725   0.402
30479SOL    HW295232  10.344   7.682   0.461
30480SOL     OW95233   9.769   8.600   0.741
30480SOL    HW195234   9.698   8.573   0.806
30480SOL    HW295235   9.743   8.572   0.648
30481SOL     OW95236   9.388   8.004   1.386
30481SOL    HW195237   9.480   8.003   1.345
30481SOL    HW295238   9.382   8.078   1.453
30482SOL     OW95239   9.871   7.670   1.147
30482SOL    HW195240   9.909   7.586   1.184
30482SOL    HW295241   9.783   7.689   1.191
30483SOL     OW95242   9.837   7.704   0.328
30483SOL    HW195243   9.864   7.645   0.253
30483SOL    HW295244   9.837   7.799   0.297
30484SOL     OW95245   9.720   8.261   1.251
30484SOL    HW195246   9.806   8.273   1.301
30484SOL    HW295247   9.678   8.174   1.278
30485SOL     OW95248   9.374   9.012   1.331
30485SOL    HW195249   9.328   9.094   1.297
30485SOL    HW295250   9.472   9.031   1.340
30486SOL     OW95251   9.677   8.548   0.501
30486SOL    HW195252   9.670   8.631   0.445
30486SOL    HW295253   9.681   8.468   0.441
30487SOL     OW95254   9.876   7.985   0.865
30487SOL    HW195255   9.888   8.051   0.791
30487SOL    HW295256   9.922   8.019   0.948
30488SOL     OW95257   9.664   8.958   1.329
30488SOL    HW195258   9.643   8.914   1.242
30488SOL    HW295259   9.761   8.984   1.332
30489SOL     OW95260   9.712   8.199   1.598
30489SOL    HW195261   9.780   8.254   1.551
30489SOL    HW295262   9.752   8.111   1.625
30490SOL     OW95263   9.814   7.498   1.740
30490SOL    HW195264   9.772   7.441   1.670
30490SOL    HW295265   9.748   7.567   1.772
30491SOL     OW95266   9.883   8.318   1.029
30491SOL    HW195267   9.927   8.407   1.020
30491SOL    HW295268   9.820   8.318   1.106
30492SOL     OW95269   9.617   7.661   1.231
30492SOL    HW195270   9.594   7.698   1.321
30492SOL    HW295271   9.587   7.566   1.225
30493SOL     OW95272   9.347   8.758   1.282
30493SOL    HW195273   9.400   8.709   1.350
30493SOL    HW295274   9.369   8.856   1.287
30494SOL     OW95275   9.617   7.511   0.618
30494SOL    HW195276   9.606   7.605   0.651
30494SOL    HW295277   9.612   7.448   0.695
30495SOL     OW95278   9.660   8.346   1.804
30495SOL    HW195279   9.736   8.390   1.852
30495SOL    HW295280   9.695   8.299   1.722
30496SOL     OW95281   9.629   8.258   0.949
30496SOL    HW195282   9.722   8.294   0.954
30496SOL    HW295283   9.623   8.173   1.001
30497SOL     OW95284   9.649   7.957   1.006
30497SOL    HW195285   9.597   7.874   0.989
30497SOL    HW295286   9.726   7.962   0.942
30498SOL     OW95287   9.318   8.774   0.200
30498SOL    HW195288   9.225   8.795   0.169
30498SOL    HW295289   9.328   8.675   0.213
30499SOL     OW95290   9.398   9.249   0.927
30499SOL    HW195291   9.356   9.163   0.900
30499SOL    HW295292   9.492   9.252   0.893
30500SOL     OW95293   9.350   7.992   1.114
30500SOL    HW195294   9.435   7.959   1.073
30500SOL    HW295295   9.363   8.007   1.212
30501SOL     OW95296   9.499   7.968   1.722
30501SOL    HW195297   9.558   7.928   1.652
30501SOL    HW295298   9.441   8.039   1.681
30502SOL     OW95299  10.125   8.020   0.325
30502SOL    HW195300  10.132   7.931   0.279
30502SOL    HW295301  10.031   8.054   0.317
30503SOL     OW95302   9.562   9.012   1.744
30503SOL    HW195303   9.532   9.069   1.820
30503SOL    HW295304   9.555   8.915   1.770
30504SOL     OW95305   9.783   7.948   0.191
30504SOL    HW195306   9.844   8.028   0.195
30504SOL    HW295307   9.688   7.979   0.198
30505SOL     OW95308   9.469   8.585   1.466
30505SOL    HW195309   9.491   8.524   1.542
30505SOL    HW295310   9.479   8.536   1.380
30506SOL     OW95311   9.393   8.706   1.022
30506SOL    HW195312   9.388   8.705   1.122
30506SOL    HW295313   9.310   8.665   0.984
30507SOL     OW95314   9.998   9.110   1.716
30507SOL    HW195315   9.942   9.191   1.725
30507SOL    HW295316  10.050   9.114   1.630
30508SOL     OW95317   9.440   9.242   1.851
30508SOL    HW195318   9.399   9.168   1.904
30508SOL    HW295319   9.504   9.293   1.909
30509SOL     OW95320   9.573   7.774   0.720
30509SOL    HW195321   9.494   7.825   0.686
30509SOL    HW295322   9.564   7.759   0.818
30510SOL     OW95323   9.682   8.736   1.490
30510SOL    HW195324   9.669   8.829   1.456
30510SOL    HW295325   9.598   8.684   1.477
30511SOL     OW95326   9.900   8.935   0.491
30511SOL    HW195327   9.942   8.877   0.421
30511SOL    HW295328   9.856   9.014   0.447
30512SOL     OW95329   9.565   8.796   0.290
30512SOL    HW195330   9.469   8.797   0.263
30512SOL    HW295331   9.577   8.849   0.374
30513SOL     OW95332   9.415   8.461   1.726
30513SOL    HW195333   9.338   8.428   1.780
30513SOL    HW295334   9.500   8.431   1.768
30514SOL     OW95335   9.982   7.651   1.489
30514SOL    HW195336  10.072   7.635   1.449
30514SOL    HW295337   9.990   7.656   1.588
30515SOL     OW95338   9.385   7.793   0.033
30515SOL    HW195339   9.293   7.765   0.004
30515SOL    HW295340   9.416   7.870  -0.023
30516SOL     OW95341   9.382   7.614   0.318
30516SOL    HW195342   9.365   7.697   0.264
30516SOL    HW295343   9.472   7.577   0.296
30517SOL     OW95344   9.923   8.290   1.431
30517SOL    HW195345   9.979   8.371   1.414
30517SOL    HW295346   9.982   8.210   1.434
30518SOL     OW95347   9.700   9.189   1.560
30518SOL    HW195348   9.609   9.230   1.558
30518SOL    HW295349   9.693   9.095   1.592
30519SOL     OW95350   9.904   8.193   0.652
30519SOL    HW195351   9.954   8.278   0.633
30519SOL    HW295352   9.816   8.195   0.604
30520SOL     OW95353   9.531   8.762   1.844
30520SOL    HW195354   9.466   8.689   1.823
30520SOL    HW295355   9.535   8.776   1.942
30521SOL     OW95356   9.389   8.688   0.653
30521SOL    HW195357   9.388   8.641   0.741
30521SOL    HW295358   9.471   8.660   0.602
30522SOL     OW95359   9.982   8.839   1.624
30522SOL    HW195360   9.904   8.789   1.662
30522SOL    HW295361   9.979   8.934   1.655
30523SOL     OW95362   9.738   7.872   0.520
30523SOL    HW195363   9.768   7.800   0.458
30523SOL    HW295364   9.699   7.832   0.603
30524SOL     OW95365   9.627   7.995   1.280
30524SOL    HW195366   9.665   7.936   1.352
30524SOL    HW295367   9.667   7.969   1.192
30525SOL     OW95368   9.349   8.525   0.300
30525SOL    HW195369   9.448   8.514   0.291
30525SOL    HW295370   9.309   8.439   0.332
30526SOL     OW95371   9.540   8.076   1.975
30526SOL    HW195372   9.447   8.074   2.012
30526SOL    HW295373   9.541   8.037   1.883
30527SOL     OW95374   9.535   7.723   2.858
30527SOL    HW195375   9.570   7.706   2.950
30527SOL    HW295376   9.447   7.678   2.846
30528SOL     OW95377   9.329   7.816   2.509
30528SOL    HW195378   9.247   7.859   2.548
30528SOL    HW295379   9.301   7.743   2.446
30529SOL     OW95380   9.879   8.723   3.027
30529SOL    HW195381   9.786   8.716   2.990
30529SOL    HW295382   9.890   8.812   3.071
30530SOL     OW95383  10.160   8.246   3.685
30530SOL    HW195384  10.156   8.322   3.750
30530SOL    HW295385  10.182   8.282   3.594
30531SOL     OW95386   9.645   8.883   2.923
30531SOL    HW195387   9.567   8.852   2.870
30531SOL    HW295388   9.703   8.941   2.866
30532SOL     OW95389   9.748   7.840   3.361
30532SOL    HW195390   9.830   7.784   3.370
30532SOL    HW295391   9.667   7.782   3.365
30533SOL     OW95392   9.541   9.161   2.345
30533SOL    HW195393   9.575   9.238   2.399
30533SOL    HW295394   9.585   9.161   2.255
30534SOL     OW95395   9.432   8.091   2.425
30534SOL    HW195396   9.387   8.003   2.442
30534SOL    HW295397   9.431   8.145   2.509
30535SOL     OW95398   9.337   9.044   1.979
30535SOL    HW195399   9.318   8.948   2.000
30535SOL    HW295400   9.304   9.102   2.054
30536SOL     OW95401   9.423   8.185   3.459
30536SOL    HW195402   9.511   8.172   3.504
30536SOL    HW295403   9.410   8.282   3.437
30537SOL     OW95404   9.923   8.813   2.588
30537SOL    HW195405   9.874   8.726   2.597
30537SOL    HW295406   9.900   8.856   2.501
30538SOL     OW95407   9.507   8.424   3.126
30538SOL    HW195408   9.596   8.379   3.112
30538SOL    HW295409   9.434   8.359   3.107
30539SOL     OW95410   9.627   7.699   3.663
30539SOL    HW195411   9.698   7.770   3.669
30539SOL    HW295412   9.539   7.738   3.691
30540SOL     OW95413   9.908   8.177   2.132
30540SOL    HW195414   9.932   8.246   2.064
30540SOL    HW295415   9.830   8.210   2.186
30541SOL     OW95416   9.386   8.259   2.651
30541SOL    HW195417   9.485   8.247   2.660
30541SOL    HW295418   9.362   8.354   2.672
30542SOL     OW95419   9.860   7.644   2.747
30542SOL    HW195420   9.855   7.639   2.847
30542SOL    HW295421   9.862   7.740   2.718
30543SOL     OW95422   9.661   9.249   2.715
30543SOL    HW195423   9.711   9.163   2.721
30543SOL    HW295424   9.726   9.326   2.712
30544SOL     OW95425   9.631   8.391   2.104
30544SOL    HW195426   9.713   8.430   2.062
30544SOL    HW295427   9.604   8.309   2.055
30545SOL     OW95428   9.771   8.714   3.589
30545SOL    HW195429   9.721   8.715   3.503
30545SOL    HW295430   9.708   8.696   3.665
30546SOL     OW95431   9.512   7.733   3.360
30546SOL    HW195432   9.432   7.793   3.347
30546SOL    HW295433   9.502   7.684   3.446
30547SOL     OW95434   9.774   9.191   2.185
30547SOL    HW195435   9.807   9.230   2.271
30547SOL    HW295436   9.850   9.184   2.120
30548SOL     OW95437   9.559   9.233   3.103
30548SOL    HW195438   9.616   9.168   3.153
30548SOL    HW295439   9.543   9.200   3.010
30549SOL     OW95440   9.692   8.148   2.342
30549SOL    HW195441   9.737   8.058   2.339
30549SOL    HW295442   9.598   8.137   2.375
30550SOL     OW95443  10.113   8.850   2.786
30550SOL    HW195444  10.203   8.864   2.744
30550SOL    HW295445  10.042   8.852   2.715
30551SOL     OW95446   9.849   7.512   2.374
30551SOL    HW195447   9.768   7.513   2.432
30551SOL    HW295448   9.852   7.595   2.319
30552SOL     OW95449   9.607   7.483   2.033
30552SOL    HW195450   9.656   7.567   2.012
30552SOL    HW295451   9.669   7.418   2.078
30553SOL     OW95452   9.769   8.600   2.603
30553SOL    HW195453   9.698   8.573   2.668
30553SOL    HW295454   9.743   8.572   2.510
30554SOL     OW95455   9.871   7.670   3.009
30554SOL    HW195456   9.909   7.586   3.046
30554SOL    HW295457   9.783   7.689   3.053
30555SOL     OW95458   9.837   7.704   2.190
30555SOL    HW195459   9.864   7.645   2.115
30555SOL    HW295460   9.837   7.799   2.159
30556SOL     OW95461   9.720   8.261   3.113
30556SOL    HW195462   9.806   8.273   3.163
30556SOL    HW295463   9.678   8.174   3.140
30557SOL     OW95464   9.677   8.548   2.363
30557SOL    HW195465   9.670   8.631   2.307
30557SOL    HW295466   9.681   8.468   2.303
30558SOL     OW95467   9.876   7.985   2.727
30558SOL    HW195468   9.888   8.051   2.653
30558SOL    HW295469   9.922   8.019   2.810
30559SOL     OW95470   9.712   8.199   3.460
30559SOL    HW195471   9.780   8.254   3.413
30559SOL    HW295472   9.752   8.111   3.487
30560SOL     OW95473   9.814   7.498   3.602
30560SOL    HW195474   9.772   7.441   3.532
30560SOL    HW295475   9.748   7.567   3.634
30561SOL     OW95476   9.883   8.318   2.891
30561SOL    HW195477   9.927   8.407   2.882
30561SOL    HW295478   9.820   8.318   2.968
30562SOL     OW95479   9.617   7.661   3.093
30562SOL    HW195480   9.594   7.698   3.183
30562SOL    HW295481   9.587   7.566   3.087
30563SOL     OW95482   9.347   8.758   3.144
30563SOL    HW195483   9.400   8.709   3.212
30563SOL    HW295484   9.369   8.856   3.149
30564SOL     OW95485   9.617   7.511   2.480
30564SOL    HW195486   9.606   7.605   2.513
30564SOL    HW295487   9.612   7.448   2.557
30565SOL     OW95488   9.629   8.258   2.811
30565SOL    HW195489   9.722   8.294   2.816
30565SOL    HW295490   9.623   8.173   2.863
30566SOL     OW95491   9.649   7.957   2.868
30566SOL    HW195492   9.597   7.874   2.851
30566SOL    HW295493   9.726   7.962   2.804
30567SOL     OW95494   9.318   8.774   2.062
30567SOL    HW195495   9.225   8.795   2.031
30567SOL    HW295496   9.328   8.675   2.075
30568SOL     OW95497   9.398   9.249   2.789
30568SOL    HW195498   9.356   9.163   2.762
30568SOL    HW295499   9.492   9.252   2.755
30569SOL     OW95500   9.814   9.016   2.772
30569SOL    HW195501   9.880   9.090   2.781
30569SOL    HW295502   9.858   8.937   2.730
30570SOL     OW95503   9.499   7.968   3.584
30570SOL    HW195504   9.558   7.928   3.514
30570SOL    HW295505   9.441   8.039   3.543
30571SOL     OW95506   9.783   7.948   2.053
30571SOL    HW195507   9.844   8.028   2.057
30571SOL    HW295508   9.688   7.979   2.060
30572SOL     OW95509   9.469   8.585   3.328
30572SOL    HW195510   9.491   8.524   3.404
30572SOL    HW295511   9.479   8.536   3.242
30573SOL     OW95512   9.440   9.242   3.713
30573SOL    HW195513   9.399   9.168   3.766
30573SOL    HW295514   9.504   9.293   3.771
30574SOL     OW95515   9.573   7.774   2.582
30574SOL    HW195516   9.494   7.825   2.548
30574SOL    HW295517   9.564   7.759   2.680
30575SOL     OW95518   9.682   8.736   3.352
30575SOL    HW195519   9.669   8.829   3.318
30575SOL    HW295520   9.598   8.684   3.339
30576SOL     OW95521   9.900   8.935   2.353
30576SOL    HW195522   9.942   8.877   2.283
30576SOL    HW295523   9.856   9.014   2.309
30577SOL     OW95524   9.565   8.796   2.152
30577SOL    HW195525   9.469   8.797   2.125
30577SOL    HW295526   9.577   8.849   2.236
30578SOL     OW95527   9.982   7.651   3.351
30578SOL    HW195528  10.072   7.635   3.311
30578SOL    HW295529   9.990   7.656   3.450
30579SOL     OW95530   9.385   7.793   1.895
30579SOL    HW195531   9.293   7.765   1.866
30579SOL    HW295532   9.416   7.870   1.839
30580SOL     OW95533   9.382   7.614   2.180
30580SOL    HW195534   9.365   7.697   2.126
30580SOL    HW295535   9.472   7.577   2.158
30581SOL     OW95536   9.923   8.290   3.293
30581SOL    HW195537   9.979   8.371   3.276
30581SOL    HW295538   9.982   8.210   3.296
30582SOL     OW95539   9.904   8.193   2.514
30582SOL    HW195540   9.954   8.278   2.495
30582SOL    HW295541   9.816   8.195   2.466
30583SOL     OW95542   9.982   8.839   3.486
30583SOL    HW195543   9.904   8.789   3.524
30583SOL    HW295544   9.979   8.934   3.517
30584SOL     OW95545   9.738   7.872   2.382
30584SOL    HW195546   9.768   7.800   2.320
30584SOL    HW295547   9.699   7.832   2.465
30585SOL     OW95548   9.627   7.995   3.142
30585SOL    HW195549   9.665   7.936   3.214
30585SOL    HW295550   9.667   7.969   3.054
30586SOL     OW95551   9.349   8.525   2.162
30586SOL    HW195552   9.448   8.514   2.153
30586SOL    HW295553   9.309   8.439   2.194
30587SOL     OW95554   9.540   8.076   3.837
30587SOL    HW195555   9.447   8.074   3.874
30587SOL    HW295556   9.541   8.037   3.745
30588SOL     OW95557   9.535   7.723   4.720
30588SOL    HW195558   9.570   7.706   4.812
30588SOL    HW295559   9.447   7.678   4.708
30589SOL     OW95560   9.329   7.816   4.371
30589SOL    HW195561   9.247   7.859   4.410
30589SOL    HW295562   9.301   7.743   4.308
30590SOL     OW95563   9.879   8.723   4.889
30590SOL    HW195564   9.786   8.716   4.852
30590SOL    HW295565   9.890   8.812   4.933
30591SOL     OW95566  10.160   8.246   5.547
30591SOL    HW195567  10.156   8.322   5.612
30591SOL    HW295568  10.182   8.282   5.456
30592SOL     OW95569   9.645   8.883   4.785
30592SOL    HW195570   9.567   8.852   4.732
30592SOL    HW295571   9.703   8.941   4.728
30593SOL     OW95572   9.748   7.840   5.223
30593SOL    HW195573   9.830   7.784   5.232
30593SOL    HW295574   9.667   7.782   5.227
30594SOL     OW95575   9.541   9.161   4.207
30594SOL    HW195576   9.575   9.238   4.261
30594SOL    HW295577   9.585   9.161   4.117
30595SOL     OW95578   9.540   8.882   4.262
30595SOL    HW195579   9.514   8.978   4.262
30595SOL    HW295580   9.469   8.828   4.307
30596SOL     OW95581   9.550   8.539   4.610
30596SOL    HW195582   9.564   8.455   4.662
30596SOL    HW295583   9.495   8.603   4.665
30597SOL     OW95584   9.432   8.091   4.287
30597SOL    HW195585   9.387   8.003   4.304
30597SOL    HW295586   9.431   8.145   4.371
30598SOL     OW95587   9.337   9.044   3.841
30598SOL    HW195588   9.318   8.948   3.862
30598SOL    HW295589   9.304   9.102   3.916
30599SOL     OW95590   9.423   8.185   5.321
30599SOL    HW195591   9.511   8.172   5.366
30599SOL    HW295592   9.410   8.282   5.299
30600SOL     OW95593   9.923   8.813   4.450
30600SOL    HW195594   9.874   8.726   4.459
30600SOL    HW295595   9.900   8.856   4.363
30601SOL     OW95596  10.119   7.452   4.226
30601SOL    HW195597  10.159   7.543   4.217
30601SOL    HW295598  10.019   7.460   4.232
30602SOL     OW95599   9.507   8.424   4.988
30602SOL    HW195600   9.596   8.379   4.974
30602SOL    HW295601   9.434   8.359   4.969
30603SOL     OW95602   9.627   7.699   5.525
30603SOL    HW195603   9.698   7.770   5.531
30603SOL    HW295604   9.539   7.738   5.553
30604SOL     OW95605   9.908   8.177   3.994
30604SOL    HW195606   9.932   8.246   3.926
30604SOL    HW295607   9.830   8.210   4.048
30605SOL     OW95608   9.386   8.259   4.513
30605SOL    HW195609   9.485   8.247   4.522
30605SOL    HW295610   9.362   8.354   4.534
30606SOL     OW95611   9.440   9.269   5.295
30606SOL    HW195612   9.430   9.254   5.394
30606SOL    HW295613   9.354   9.305   5.259
30607SOL     OW95614  10.175   7.796   3.919
30607SOL    HW195615  10.234   7.859   3.870
30607SOL    HW295616  10.194   7.702   3.890
30608SOL     OW95617   9.860   7.644   4.609
30608SOL    HW195618   9.855   7.639   4.709
30608SOL    HW295619   9.862   7.740   4.580
30609SOL     OW95620   9.771   8.714   5.451
30609SOL    HW195621   9.721   8.715   5.365
30609SOL    HW295622   9.708   8.696   5.527
30610SOL     OW95623   9.512   7.733   5.222
30610SOL    HW195624   9.432   7.793   5.209
30610SOL    HW295625   9.502   7.684   5.308
30611SOL     OW95626   9.559   9.233   4.965
30611SOL    HW195627   9.616   9.168   5.015
30611SOL    HW295628   9.543   9.200   4.872
30612SOL     OW95629   9.692   8.148   4.204
30612SOL    HW195630   9.737   8.058   4.201
30612SOL    HW295631   9.598   8.137   4.237
30613SOL     OW95632   9.924   7.570   3.841
30613SOL    HW195633  10.022   7.548   3.848
30613SOL    HW295634   9.893   7.553   3.748
30614SOL     OW95635  10.113   8.850   4.648
30614SOL    HW195636  10.203   8.864   4.606
30614SOL    HW295637  10.042   8.852   4.577
30615SOL     OW95638   9.849   7.512   4.236
30615SOL    HW195639   9.768   7.513   4.294
30615SOL    HW295640   9.852   7.595   4.181
30616SOL     OW95641   9.607   7.483   3.895
30616SOL    HW195642   9.656   7.567   3.874
30616SOL    HW295643   9.669   7.418   3.940
30617SOL     OW95644  10.245   7.684   4.204
30617SOL    HW195645  10.197   7.725   4.126
30617SOL    HW295646  10.344   7.682   4.185
30618SOL     OW95647   9.769   8.600   4.465
30618SOL    HW195648   9.698   8.573   4.530
30618SOL    HW295649   9.743   8.572   4.372
30619SOL     OW95650   9.388   8.004   5.110
30619SOL    HW195651   9.480   8.003   5.069
30619SOL    HW295652   9.382   8.078   5.177
30620SOL     OW95653   9.871   7.670   4.871
30620SOL    HW195654   9.909   7.586   4.908
30620SOL    HW295655   9.783   7.689   4.915
30621SOL     OW95656   9.837   7.704   4.052
30621SOL    HW195657   9.864   7.645   3.977
30621SOL    HW295658   9.837   7.799   4.021
30622SOL     OW95659   9.720   8.261   4.975
30622SOL    HW195660   9.806   8.273   5.025
30622SOL    HW295661   9.678   8.174   5.002
30623SOL     OW95662   9.374   9.012   5.055
30623SOL    HW195663   9.328   9.094   5.021
30623SOL    HW295664   9.472   9.031   5.064
30624SOL     OW95665   9.876   7.985   4.589
30624SOL    HW195666   9.888   8.051   4.515
30624SOL    HW295667   9.922   8.019   4.672
30625SOL     OW95668   9.664   8.958   5.053
30625SOL    HW195669   9.643   8.914   4.966
30625SOL    HW295670   9.761   8.984   5.056
30626SOL     OW95671   9.712   8.199   5.322
30626SOL    HW195672   9.780   8.254   5.275
30626SOL    HW295673   9.752   8.111   5.349
30627SOL     OW95674   9.814   7.498   5.464
30627SOL    HW195675   9.772   7.441   5.394
30627SOL    HW295676   9.748   7.567   5.496
30628SOL     OW95677   9.883   8.318   4.753
30628SOL    HW195678   9.927   8.407   4.744
30628SOL    HW295679   9.820   8.318   4.830
30629SOL     OW95680   9.617   7.661   4.955
30629SOL    HW195681   9.594   7.698   5.045
30629SOL    HW295682   9.587   7.566   4.949
30630SOL     OW95683   9.347   8.758   5.006
30630SOL    HW195684   9.400   8.709   5.074
30630SOL    HW295685   9.369   8.856   5.011
30631SOL     OW95686   9.617   7.511   4.342
30631SOL    HW195687   9.606   7.605   4.375
30631SOL    HW295688   9.612   7.448   4.419
30632SOL     OW95689   9.660   8.346   5.528
30632SOL    HW195690   9.736   8.390   5.576
30632SOL    HW295691   9.695   8.299   5.446
30633SOL     OW95692   9.629   8.258   4.673
30633SOL    HW195693   9.722   8.294   4.678
30633SOL    HW295694   9.623   8.173   4.725
30634SOL     OW95695   9.649   7.957   4.730
30634SOL    HW195696   9.597   7.874   4.713
30634SOL    HW295697   9.726   7.962   4.666
30635SOL     OW95698   9.318   8.774   3.924
30635SOL    HW195699   9.225   8.795   3.893
30635SOL    HW295700   9.328   8.675   3.937
30636SOL     OW95701   9.398   9.249   4.651
30636SOL    HW195702   9.356   9.163   4.624
30636SOL    HW295703   9.492   9.252   4.617
30637SOL     OW95704   9.350   7.992   4.838
30637SOL    HW195705   9.435   7.959   4.797
30637SOL    HW295706   9.363   8.007   4.936
30638SOL     OW95707   9.499   7.968   5.446
30638SOL    HW195708   9.558   7.928   5.376
30638SOL    HW295709   9.441   8.039   5.405
30639SOL     OW95710  10.125   8.020   4.049
30639SOL    HW195711  10.132   7.931   4.003
30639SOL    HW295712  10.031   8.054   4.041
30640SOL     OW95713   9.562   9.012   5.468
30640SOL    HW195714   9.532   9.069   5.544
30640SOL    HW295715   9.555   8.915   5.494
30641SOL     OW95716   9.783   7.948   3.915
30641SOL    HW195717   9.844   8.028   3.919
30641SOL    HW295718   9.688   7.979   3.922
30642SOL     OW95719   9.469   8.585   5.190
30642SOL    HW195720   9.491   8.524   5.266
30642SOL    HW295721   9.479   8.536   5.104
30643SOL     OW95722   9.393   8.706   4.746
30643SOL    HW195723   9.388   8.705   4.846
30643SOL    HW295724   9.310   8.665   4.708
30644SOL     OW95725   9.998   9.110   5.440
30644SOL    HW195726   9.942   9.191   5.449
30644SOL    HW295727  10.050   9.114   5.354
30645SOL     OW95728   9.573   7.774   4.444
30645SOL    HW195729   9.494   7.825   4.410
30645SOL    HW295730   9.564   7.759   4.542
30646SOL     OW95731   9.682   8.736   5.214
30646SOL    HW195732   9.669   8.829   5.180
30646SOL    HW295733   9.598   8.684   5.201
30647SOL     OW95734   9.900   8.935   4.215
30647SOL    HW195735   9.942   8.877   4.145
30647SOL    HW295736   9.856   9.014   4.171
30648SOL     OW95737   9.565   8.796   4.014
30648SOL    HW195738   9.469   8.797   3.987
30648SOL    HW295739   9.577   8.849   4.098
30649SOL     OW95740   9.415   8.461   5.450
30649SOL    HW195741   9.338   8.428   5.504
30649SOL    HW295742   9.500   8.431   5.492
30650SOL     OW95743   9.982   7.651   5.213
30650SOL    HW195744  10.072   7.635   5.173
30650SOL    HW295745   9.990   7.656   5.312
30651SOL     OW95746   9.382   7.614   4.042
30651SOL    HW195747   9.365   7.697   3.988
30651SOL    HW295748   9.472   7.577   4.020
30652SOL     OW95749   9.923   8.290   5.155
30652SOL    HW195750   9.979   8.371   5.138
30652SOL    HW295751   9.982   8.210   5.158
30653SOL     OW95752   9.700   9.189   5.284
30653SOL    HW195753   9.609   9.230   5.282
30653SOL    HW295754   9.693   9.095   5.316
30654SOL     OW95755   9.904   8.193   4.376
30654SOL    HW195756   9.954   8.278   4.357
30654SOL    HW295757   9.816   8.195   4.328
30655SOL     OW95758   9.531   8.762   5.568
30655SOL    HW195759   9.466   8.689   5.547
30655SOL    HW295760   9.535   8.776   5.666
30656SOL     OW95761   9.389   8.688   4.377
30656SOL    HW195762   9.388   8.641   4.465
30656SOL    HW295763   9.471   8.660   4.326
30657SOL     OW95764   9.982   8.839   5.348
30657SOL    HW195765   9.904   8.789   5.386
30657SOL    HW295766   9.979   8.934   5.379
30658SOL     OW95767   9.738   7.872   4.244
30658SOL    HW195768   9.768   7.800   4.182
30658SOL    HW295769   9.699   7.832   4.327
30659SOL     OW95770   9.627   7.995   5.004
30659SOL    HW195771   9.665   7.936   5.076
30659SOL    HW295772   9.667   7.969   4.916
30660SOL     OW95773   9.349   8.525   4.024
30660SOL    HW195774   9.448   8.514   4.015
30660SOL    HW295775   9.309   8.439   4.056
30661SOL     OW95776   9.540   8.076   5.699
30661SOL    HW195777   9.447   8.074   5.736
30661SOL    HW295778   9.541   8.037   5.607
30662SOL     OW95779   9.535   7.723   6.582
30662SOL    HW195780   9.570   7.706   6.674
30662SOL    HW295781   9.447   7.678   6.570
30663SOL     OW95782   9.329   7.816   6.233
30663SOL    HW195783   9.247   7.859   6.272
30663SOL    HW295784   9.301   7.743   6.170
30664SOL     OW95785   9.645   8.883   6.647
30664SOL    HW195786   9.567   8.852   6.594
30664SOL    HW295787   9.703   8.941   6.590
30665SOL     OW95788   9.540   8.882   6.124
30665SOL    HW195789   9.514   8.978   6.124
30665SOL    HW295790   9.469   8.828   6.169
30666SOL     OW95791   9.550   8.539   6.472
30666SOL    HW195792   9.564   8.455   6.524
30666SOL    HW295793   9.495   8.603   6.527
30667SOL     OW95794   9.432   8.091   6.149
30667SOL    HW195795   9.387   8.003   6.166
30667SOL    HW295796   9.431   8.145   6.233
30668SOL     OW95797   9.337   9.044   5.703
30668SOL    HW195798   9.318   8.948   5.724
30668SOL    HW295799   9.304   9.102   5.778
30669SOL     OW95800   9.423   8.185   7.183
30669SOL    HW195801   9.511   8.172   7.228
30669SOL    HW295802   9.410   8.282   7.161
30670SOL     OW95803   9.923   8.813   6.312
30670SOL    HW195804   9.874   8.726   6.321
30670SOL    HW295805   9.900   8.856   6.225
30671SOL     OW95806  10.119   7.452   6.088
30671SOL    HW195807  10.159   7.543   6.079
30671SOL    HW295808  10.019   7.460   6.094
30672SOL     OW95809   9.507   8.424   6.850
30672SOL    HW195810   9.596   8.379   6.836
30672SOL    HW295811   9.434   8.359   6.831
30673SOL     OW95812   9.627   7.699   7.387
30673SOL    HW195813   9.698   7.770   7.393
30673SOL    HW295814   9.539   7.738   7.415
30674SOL     OW95815   9.908   8.177   5.856
30674SOL    HW195816   9.932   8.246   5.788
30674SOL    HW295817   9.830   8.210   5.910
30675SOL     OW95818   9.386   8.259   6.375
30675SOL    HW195819   9.485   8.247   6.384
30675SOL    HW295820   9.362   8.354   6.396
30676SOL     OW95821   9.440   9.269   7.157
30676SOL    HW195822   9.430   9.254   7.256
30676SOL    HW295823   9.354   9.305   7.121
30677SOL     OW95824  10.175   7.796   5.781
30677SOL    HW195825  10.234   7.859   5.732
30677SOL    HW295826  10.194   7.702   5.752
30678SOL     OW95827   9.860   7.644   6.471
30678SOL    HW195828   9.855   7.639   6.571
30678SOL    HW295829   9.862   7.740   6.442
30679SOL     OW95830   9.661   9.249   6.439
30679SOL    HW195831   9.711   9.163   6.445
30679SOL    HW295832   9.726   9.326   6.436
30680SOL     OW95833   9.631   8.391   5.828
30680SOL    HW195834   9.713   8.430   5.786
30680SOL    HW295835   9.604   8.309   5.779
30681SOL     OW95836   9.771   8.714   7.313
30681SOL    HW195837   9.721   8.715   7.227
30681SOL    HW295838   9.708   8.696   7.389
30682SOL     OW95839   9.512   7.733   7.084
30682SOL    HW195840   9.432   7.793   7.071
30682SOL    HW295841   9.502   7.684   7.170
30683SOL     OW95842   9.559   9.233   6.827
30683SOL    HW195843   9.616   9.168   6.877
30683SOL    HW295844   9.543   9.200   6.734
30684SOL     OW95845   9.692   8.148   6.066
30684SOL    HW195846   9.737   8.058   6.063
30684SOL    HW295847   9.598   8.137   6.099
30685SOL     OW95848   9.924   7.570   5.703
30685SOL    HW195849  10.022   7.548   5.710
30685SOL    HW295850   9.893   7.553   5.610
30686SOL     OW95851  10.113   8.850   6.510
30686SOL    HW195852  10.203   8.864   6.468
30686SOL    HW295853  10.042   8.852   6.439
30687SOL     OW95854   9.849   7.512   6.098
30687SOL    HW195855   9.768   7.513   6.156
30687SOL    HW295856   9.852   7.595   6.043
30688SOL     OW95857   9.607   7.483   5.757
30688SOL    HW195858   9.656   7.567   5.736
30688SOL    HW295859   9.669   7.418   5.802
30689SOL     OW95860  10.245   7.684   6.066
30689SOL    HW195861  10.197   7.725   5.988
30689SOL    HW295862  10.344   7.682   6.047
30690SOL     OW95863   9.769   8.600   6.327
30690SOL    HW195864   9.698   8.573   6.392
30690SOL    HW295865   9.743   8.572   6.234
30691SOL     OW95866   9.388   8.004   6.972
30691SOL    HW195867   9.480   8.003   6.931
30691SOL    HW295868   9.382   8.078   7.039
30692SOL     OW95869   9.871   7.670   6.733
30692SOL    HW195870   9.909   7.586   6.770
30692SOL    HW295871   9.783   7.689   6.777
30693SOL     OW95872   9.837   7.704   5.914
30693SOL    HW195873   9.864   7.645   5.839
30693SOL    HW295874   9.837   7.799   5.883
30694SOL     OW95875   9.720   8.261   6.837
30694SOL    HW195876   9.806   8.273   6.887
30694SOL    HW295877   9.678   8.174   6.864
30695SOL     OW95878   9.374   9.012   6.917
30695SOL    HW195879   9.328   9.094   6.883
30695SOL    HW295880   9.472   9.031   6.926
30696SOL     OW95881   9.677   8.548   6.087
30696SOL    HW195882   9.670   8.631   6.031
30696SOL    HW295883   9.681   8.468   6.027
30697SOL     OW95884   9.876   7.985   6.451
30697SOL    HW195885   9.888   8.051   6.377
30697SOL    HW295886   9.922   8.019   6.534
30698SOL     OW95887   9.814   7.498   7.326
30698SOL    HW195888   9.772   7.441   7.256
30698SOL    HW295889   9.748   7.567   7.358
30699SOL     OW95890   9.883   8.318   6.615
30699SOL    HW195891   9.927   8.407   6.606
30699SOL    HW295892   9.820   8.318   6.692
30700SOL     OW95893   9.617   7.661   6.817
30700SOL    HW195894   9.594   7.698   6.907
30700SOL    HW295895   9.587   7.566   6.811
30701SOL     OW95896   9.347   8.758   6.868
30701SOL    HW195897   9.400   8.709   6.936
30701SOL    HW295898   9.369   8.856   6.873
30702SOL     OW95899   9.617   7.511   6.204
30702SOL    HW195900   9.606   7.605   6.237
30702SOL    HW295901   9.612   7.448   6.281
30703SOL     OW95902   9.660   8.346   7.390
30703SOL    HW195903   9.736   8.390   7.438
30703SOL    HW295904   9.695   8.299   7.308
30704SOL     OW95905   9.629   8.258   6.535
30704SOL    HW195906   9.722   8.294   6.540
30704SOL    HW295907   9.623   8.173   6.587
30705SOL     OW95908   9.649   7.957   6.592
30705SOL    HW195909   9.597   7.874   6.575
30705SOL    HW295910   9.726   7.962   6.528
30706SOL     OW95911   9.318   8.774   5.786
30706SOL    HW195912   9.225   8.795   5.755
30706SOL    HW295913   9.328   8.675   5.799
30707SOL     OW95914   9.398   9.249   6.513
30707SOL    HW195915   9.356   9.163   6.486
30707SOL    HW295916   9.492   9.252   6.479
30708SOL     OW95917   9.814   9.016   6.496
30708SOL    HW195918   9.880   9.090   6.505
30708SOL    HW295919   9.858   8.937   6.454
30709SOL     OW95920   9.350   7.992   6.700
30709SOL    HW195921   9.435   7.959   6.659
30709SOL    HW295922   9.363   8.007   6.798
30710SOL     OW95923  10.125   8.020   5.911
30710SOL    HW195924  10.132   7.931   5.865
30710SOL    HW295925  10.031   8.054   5.903
30711SOL     OW95926   9.562   9.012   7.330
30711SOL    HW195927   9.532   9.069   7.406
30711SOL    HW295928   9.555   8.915   7.356
30712SOL     OW95929   9.783   7.948   5.777
30712SOL    HW195930   9.844   8.028   5.781
30712SOL    HW295931   9.688   7.979   5.784
30713SOL     OW95932   9.469   8.585   7.052
30713SOL    HW195933   9.491   8.524   7.128
30713SOL    HW295934   9.479   8.536   6.966
30714SOL     OW95935   9.393   8.706   6.608
30714SOL    HW195936   9.388   8.705   6.708
30714SOL    HW295937   9.310   8.665   6.570
30715SOL     OW95938   9.440   9.242   7.437
30715SOL    HW195939   9.399   9.168   7.490
30715SOL    HW295940   9.504   9.293   7.495
30716SOL     OW95941   9.573   7.774   6.306
30716SOL    HW195942   9.494   7.825   6.272
30716SOL    HW295943   9.564   7.759   6.404
30717SOL     OW95944   9.682   8.736   7.076
30717SOL    HW195945   9.669   8.829   7.042
30717SOL    HW295946   9.598   8.684   7.063
30718SOL     OW95947   9.900   8.935   6.077
30718SOL    HW195948   9.942   8.877   6.007
30718SOL    HW295949   9.856   9.014   6.033
30719SOL     OW95950   9.565   8.796   5.876
30719SOL    HW195951   9.469   8.797   5.849
30719SOL    HW295952   9.577   8.849   5.960
30720SOL     OW95953   9.415   8.461   7.312
30720SOL    HW195954   9.338   8.428   7.366
30720SOL    HW295955   9.500   8.431   7.354
30721SOL     OW95956   9.385   7.793   5.619
30721SOL    HW195957   9.293   7.765   5.590
30721SOL    HW295958   9.416   7.870   5.563
30722SOL     OW95959   9.382   7.614   5.904
30722SOL    HW195960   9.365   7.697   5.850
30722SOL    HW295961   9.472   7.577   5.882
30723SOL     OW95962   9.923   8.290   7.017
30723SOL    HW195963   9.979   8.371   7.000
30723SOL    HW295964   9.982   8.210   7.020
30724SOL     OW95965   9.700   9.189   7.146
30724SOL    HW195966   9.609   9.230   7.144
30724SOL    HW295967   9.693   9.095   7.178
30725SOL     OW95968   9.904   8.193   6.238
30725SOL    HW195969   9.954   8.278   6.219
30725SOL    HW295970   9.816   8.195   6.190
30726SOL     OW95971   9.531   8.762   7.430
30726SOL    HW195972   9.466   8.689   7.409
30726SOL    HW295973   9.535   8.776   7.528
30727SOL     OW95974   9.389   8.688   6.239
30727SOL    HW195975   9.388   8.641   6.327
30727SOL    HW295976   9.471   8.660   6.188
30728SOL     OW95977   9.982   8.839   7.210
30728SOL    HW195978   9.904   8.789   7.248
30728SOL    HW295979   9.979   8.934   7.241
30729SOL     OW95980   9.738   7.872   6.106
30729SOL    HW195981   9.768   7.800   6.044
30729SOL    HW295982   9.699   7.832   6.189
30730SOL     OW95983   9.627   7.995   6.866
30730SOL    HW195984   9.665   7.936   6.938
30730SOL    HW295985   9.667   7.969   6.778
30731SOL     OW95986   9.349   8.525   5.886
30731SOL    HW195987   9.448   8.514   5.877
30731SOL    HW295988   9.309   8.439   5.918
30732SOL     OW95989   9.540   8.076   7.561
30732SOL    HW195990   9.447   8.074   7.598
30732SOL    HW295991   9.541   8.037   7.469
30733SOL     OW95992   9.535   7.723   8.444
30733SOL    HW195993   9.570   7.706   8.536
30733SOL    HW295994   9.447   7.678   8.432
30734SOL     OW95995   9.329   7.816   8.095
30734SOL    HW195996   9.247   7.859   8.134
30734SOL    HW295997   9.301   7.743   8.032
30735SOL     OW95998   9.879   8.723   8.613
30735SOL    HW195999   9.786   8.716   8.576
30735SOL    HW296000   9.890   8.812   8.657
30736SOL     OW96001  10.160   8.246   9.271
30736SOL    HW196002  10.156   8.322   9.336
30736SOL    HW296003  10.182   8.282   9.180
30737SOL     OW96004   9.748   7.840   8.947
30737SOL    HW196005   9.830   7.784   8.956
30737SOL    HW296006   9.667   7.782   8.951
30738SOL     OW96007   9.541   9.161   7.931
30738SOL    HW196008   9.575   9.238   7.985
30738SOL    HW296009   9.585   9.161   7.841
30739SOL     OW96010   9.540   8.882   7.986
30739SOL    HW196011   9.514   8.978   7.986
30739SOL    HW296012   9.469   8.828   8.031
30740SOL     OW96013   9.550   8.539   8.334
30740SOL    HW196014   9.564   8.455   8.386
30740SOL    HW296015   9.495   8.603   8.389
30741SOL     OW96016   9.432   8.091   8.011
30741SOL    HW196017   9.387   8.003   8.028
30741SOL    HW296018   9.431   8.145   8.095
30742SOL     OW96019   9.337   9.044   7.565
30742SOL    HW196020   9.318   8.948   7.586
30742SOL    HW296021   9.304   9.102   7.640
30743SOL     OW96022   9.423   8.185   9.045
30743SOL    HW196023   9.511   8.172   9.090
30743SOL    HW296024   9.410   8.282   9.023
30744SOL     OW96025   9.923   8.813   8.174
30744SOL    HW196026   9.874   8.726   8.183
30744SOL    HW296027   9.900   8.856   8.087
30745SOL     OW96028  10.119   7.452   7.950
30745SOL    HW196029  10.159   7.543   7.941
30745SOL    HW296030  10.019   7.460   7.956
30746SOL     OW96031   9.507   8.424   8.712
30746SOL    HW196032   9.596   8.379   8.698
30746SOL    HW296033   9.434   8.359   8.693
30747SOL     OW96034   9.627   7.699   9.249
30747SOL    HW196035   9.698   7.770   9.255
30747SOL    HW296036   9.539   7.738   9.277
30748SOL     OW96037   9.386   8.259   8.237
30748SOL    HW196038   9.485   8.247   8.246
30748SOL    HW296039   9.362   8.354   8.258
30749SOL     OW96040   9.440   9.269   9.019
30749SOL    HW196041   9.430   9.254   9.118
30749SOL    HW296042   9.354   9.305   8.983
30750SOL     OW96043  10.175   7.796   7.643
30750SOL    HW196044  10.234   7.859   7.594
30750SOL    HW296045  10.194   7.702   7.614
30751SOL     OW96046   9.860   7.644   8.333
30751SOL    HW196047   9.855   7.639   8.433
30751SOL    HW296048   9.862   7.740   8.304
30752SOL     OW96049   9.631   8.391   7.690
30752SOL    HW196050   9.713   8.430   7.648
30752SOL    HW296051   9.604   8.309   7.641
30753SOL     OW96052   9.771   8.714   9.175
30753SOL    HW196053   9.721   8.715   9.089
30753SOL    HW296054   9.708   8.696   9.251
30754SOL     OW96055   9.512   7.733   8.946
30754SOL    HW196056   9.432   7.793   8.933
30754SOL    HW296057   9.502   7.684   9.032
30755SOL     OW96058   9.774   9.191   7.771
30755SOL    HW196059   9.807   9.230   7.857
30755SOL    HW296060   9.850   9.184   7.706
30756SOL     OW96061   9.692   8.148   7.928
30756SOL    HW196062   9.737   8.058   7.925
30756SOL    HW296063   9.598   8.137   7.961
30757SOL     OW96064   9.924   7.570   7.565
30757SOL    HW196065  10.022   7.548   7.572
30757SOL    HW296066   9.893   7.553   7.472
30758SOL     OW96067  10.113   8.850   8.372
30758SOL    HW196068  10.203   8.864   8.330
30758SOL    HW296069  10.042   8.852   8.301
30759SOL     OW96070   9.849   7.512   7.960
30759SOL    HW196071   9.768   7.513   8.018
30759SOL    HW296072   9.852   7.595   7.905
30760SOL     OW96073   9.607   7.483   7.619
30760SOL    HW196074   9.656   7.567   7.598
30760SOL    HW296075   9.669   7.418   7.664
30761SOL     OW96076  10.245   7.684   7.928
30761SOL    HW196077  10.197   7.725   7.850
30761SOL    HW296078  10.344   7.682   7.909
30762SOL     OW96079   9.769   8.600   8.189
30762SOL    HW196080   9.698   8.573   8.254
30762SOL    HW296081   9.743   8.572   8.096
30763SOL     OW96082   9.388   8.004   8.834
30763SOL    HW196083   9.480   8.003   8.793
30763SOL    HW296084   9.382   8.078   8.901
30764SOL     OW96085   9.871   7.670   8.595
30764SOL    HW196086   9.909   7.586   8.632
30764SOL    HW296087   9.783   7.689   8.639
30765SOL     OW96088   9.837   7.704   7.776
30765SOL    HW196089   9.864   7.645   7.701
30765SOL    HW296090   9.837   7.799   7.745
30766SOL     OW96091   9.720   8.261   8.699
30766SOL    HW196092   9.806   8.273   8.749
30766SOL    HW296093   9.678   8.174   8.726
30767SOL     OW96094   9.374   9.012   8.779
30767SOL    HW196095   9.328   9.094   8.745
30767SOL    HW296096   9.472   9.031   8.788
30768SOL     OW96097   9.677   8.548   7.949
30768SOL    HW196098   9.670   8.631   7.893
30768SOL    HW296099   9.681   8.468   7.889
30769SOL     OW96100   9.876   7.985   8.313
30769SOL    HW196101   9.888   8.051   8.239
30769SOL    HW296102   9.922   8.019   8.396
30770SOL     OW96103   9.712   8.199   9.046
30770SOL    HW196104   9.780   8.254   8.999
30770SOL    HW296105   9.752   8.111   9.073
30771SOL     OW96106   9.814   7.498   9.188
30771SOL    HW196107   9.772   7.441   9.118
30771SOL    HW296108   9.748   7.567   9.220
30772SOL     OW96109   9.883   8.318   8.477
30772SOL    HW196110   9.927   8.407   8.468
30772SOL    HW296111   9.820   8.318   8.554
30773SOL     OW96112   9.617   7.661   8.679
30773SOL    HW196113   9.594   7.698   8.769
30773SOL    HW296114   9.587   7.566   8.673
30774SOL     OW96115   9.347   8.758   8.730
30774SOL    HW196116   9.400   8.709   8.798
30774SOL    HW296117   9.369   8.856   8.735
30775SOL     OW96118   9.617   7.511   8.066
30775SOL    HW196119   9.606   7.605   8.099
30775SOL    HW296120   9.612   7.448   8.143
30776SOL     OW96121   9.660   8.346   9.252
30776SOL    HW196122   9.736   8.390   9.300
30776SOL    HW296123   9.695   8.299   9.170
30777SOL     OW96124   9.629   8.258   8.397
30777SOL    HW196125   9.722   8.294   8.402
30777SOL    HW296126   9.623   8.173   8.449
30778SOL     OW96127   9.649   7.957   8.454
30778SOL    HW196128   9.597   7.874   8.437
30778SOL    HW296129   9.726   7.962   8.390
30779SOL     OW96130   9.318   8.774   7.648
30779SOL    HW196131   9.225   8.795   7.617
30779SOL    HW296132   9.328   8.675   7.661
30780SOL     OW96133   9.814   9.016   8.358
30780SOL    HW196134   9.880   9.090   8.367
30780SOL    HW296135   9.858   8.937   8.316
30781SOL     OW96136   9.350   7.992   8.562
30781SOL    HW196137   9.435   7.959   8.521
30781SOL    HW296138   9.363   8.007   8.660
30782SOL     OW96139   9.499   7.968   9.170
30782SOL    HW196140   9.558   7.928   9.100
30782SOL    HW296141   9.441   8.039   9.129
30783SOL     OW96142  10.125   8.020   7.773
30783SOL    HW196143  10.132   7.931   7.727
30783SOL    HW296144  10.031   8.054   7.765
30784SOL     OW96145   9.562   9.012   9.192
30784SOL    HW196146   9.532   9.069   9.268
30784SOL    HW296147   9.555   8.915   9.218
30785SOL     OW96148   9.783   7.948   7.639
30785SOL    HW196149   9.844   8.028   7.643
30785SOL    HW296150   9.688   7.979   7.646
30786SOL     OW96151   9.469   8.585   8.914
30786SOL    HW196152   9.491   8.524   8.990
30786SOL    HW296153   9.479   8.536   8.828
30787SOL     OW96154   9.393   8.706   8.470
30787SOL    HW196155   9.388   8.705   8.570
30787SOL    HW296156   9.310   8.665   8.432
30788SOL     OW96157   9.998   9.110   9.164
30788SOL    HW196158   9.942   9.191   9.173
30788SOL    HW296159  10.050   9.114   9.078
30789SOL     OW96160   9.440   9.242   9.299
30789SOL    HW196161   9.399   9.168   9.352
30789SOL    HW296162   9.504   9.293   9.357
30790SOL     OW96163   9.573   7.774   8.168
30790SOL    HW196164   9.494   7.825   8.134
30790SOL    HW296165   9.564   7.759   8.266
30791SOL     OW96166   9.682   8.736   8.938
30791SOL    HW196167   9.669   8.829   8.904
30791SOL    HW296168   9.598   8.684   8.925
30792SOL     OW96169   9.900   8.935   7.939
30792SOL    HW196170   9.942   8.877   7.869
30792SOL    HW296171   9.856   9.014   7.895
30793SOL     OW96172   9.565   8.796   7.738
30793SOL    HW196173   9.469   8.797   7.711
30793SOL    HW296174   9.577   8.849   7.822
30794SOL     OW96175   9.415   8.461   9.174
30794SOL    HW196176   9.338   8.428   9.228
30794SOL    HW296177   9.500   8.431   9.216
30795SOL     OW96178   9.982   7.651   8.937
30795SOL    HW196179  10.072   7.635   8.897
30795SOL    HW296180   9.990   7.656   9.036
30796SOL     OW96181   9.385   7.793   7.481
30796SOL    HW196182   9.293   7.765   7.452
30796SOL    HW296183   9.416   7.870   7.425
30797SOL     OW96184   9.382   7.614   7.766
30797SOL    HW196185   9.365   7.697   7.712
30797SOL    HW296186   9.472   7.577   7.744
30798SOL     OW96187   9.923   8.290   8.879
30798SOL    HW196188   9.979   8.371   8.862
30798SOL    HW296189   9.982   8.210   8.882
30799SOL     OW96190   9.700   9.189   9.008
30799SOL    HW196191   9.609   9.230   9.006
30799SOL    HW296192   9.693   9.095   9.040
30800SOL     OW96193   9.904   8.193   8.100
30800SOL    HW196194   9.954   8.278   8.081
30800SOL    HW296195   9.816   8.195   8.052
30801SOL     OW96196   9.531   8.762   9.292
30801SOL    HW196197   9.466   8.689   9.271
30801SOL    HW296198   9.535   8.776   9.390
30802SOL     OW96199   9.389   8.688   8.101
30802SOL    HW196200   9.388   8.641   8.189
30802SOL    HW296201   9.471   8.660   8.050
30803SOL     OW96202   9.982   8.839   9.072
30803SOL    HW196203   9.904   8.789   9.110
30803SOL    HW296204   9.979   8.934   9.103
30804SOL     OW96205   9.738   7.872   7.968
30804SOL    HW196206   9.768   7.800   7.906
30804SOL    HW296207   9.699   7.832   8.051
30805SOL     OW96208   9.627   7.995   8.728
30805SOL    HW196209   9.665   7.936   8.800
30805SOL    HW296210   9.667   7.969   8.640
30806SOL     OW96211   9.349   8.525   7.748
30806SOL    HW196212   9.448   8.514   7.739
30806SOL    HW296213   9.309   8.439   7.780
30807SOL     OW96214   9.540   8.076   9.423
30807SOL    HW196215   9.447   8.074   9.460
30807SOL    HW296216   9.541   8.037   9.331
30808SOL     OW96217   9.541   9.161   9.793
30808SOL    HW196218   9.575   9.238   9.847
30808SOL    HW296219   9.585   9.161   9.703
30809SOL     OW96220   9.540   8.882   9.848
30809SOL    HW196221   9.514   8.978   9.848
30809SOL    HW296222   9.469   8.828   9.893
30810SOL     OW96223   9.432   8.091   9.873
30810SOL    HW196224   9.387   8.003   9.890
30810SOL    HW296225   9.431   8.145   9.957
30811SOL     OW96226   9.337   9.044   9.427
30811SOL    HW196227   9.318   8.948   9.448
30811SOL    HW296228   9.304   9.102   9.502
30812SOL     OW96229  10.119   7.452   9.812
30812SOL    HW196230  10.159   7.543   9.803
30812SOL    HW296231  10.019   7.460   9.818
30813SOL     OW96232   9.908   8.177   9.580
30813SOL    HW196233   9.932   8.246   9.512
30813SOL    HW296234   9.830   8.210   9.634
30814SOL     OW96235   9.386   8.259  10.099
30814SOL    HW196236   9.485   8.247  10.108
30814SOL    HW296237   9.362   8.354  10.120
30815SOL     OW96238  10.175   7.796   9.505
30815SOL    HW196239  10.234   7.859   9.456
30815SOL    HW296240  10.194   7.702   9.476
30816SOL     OW96241   9.661   9.249  10.163
30816SOL    HW196242   9.711   9.163  10.169
30816SOL    HW296243   9.726   9.326  10.160
30817SOL     OW96244   9.631   8.391   9.552
30817SOL    HW196245   9.713   8.430   9.510
30817SOL    HW296246   9.604   8.309   9.503
30818SOL     OW96247   9.774   9.191   9.633
30818SOL    HW196248   9.807   9.230   9.719
30818SOL    HW296249   9.850   9.184   9.568
30819SOL     OW96250   9.692   8.148   9.790
30819SOL    HW196251   9.737   8.058   9.787
30819SOL    HW296252   9.598   8.137   9.823
30820SOL     OW96253   9.924   7.570   9.427
30820SOL    HW196254  10.022   7.548   9.434
30820SOL    HW296255   9.893   7.553   9.334
30821SOL     OW96256   9.849   7.512   9.822
30821SOL    HW196257   9.768   7.513   9.880
30821SOL    HW296258   9.852   7.595   9.767
30822SOL     OW96259   9.607   7.483   9.481
30822SOL    HW196260   9.656   7.567   9.460
30822SOL    HW296261   9.669   7.418   9.526
30823SOL     OW96262  10.245   7.684   9.790
30823SOL    HW196263  10.197   7.725   9.712
30823SOL    HW296264  10.344   7.682   9.771
30824SOL     OW96265   9.769   8.600  10.051
30824SOL    HW196266   9.698   8.573  10.116
30824SOL    HW296267   9.743   8.572   9.958
30825SOL     OW96268   9.837   7.704   9.638
30825SOL    HW196269   9.864   7.645   9.563
30825SOL    HW296270   9.837   7.799   9.607
30826SOL     OW96271   9.677   8.548   9.811
30826SOL    HW196272   9.670   8.631   9.755
30826SOL    HW296273   9.681   8.468   9.751
30827SOL     OW96274   9.617   7.511   9.928
30827SOL    HW196275   9.606   7.605   9.961
30827SOL    HW296276   9.612   7.448  10.005
30828SOL     OW96277   9.318   8.774   9.510
30828SOL    HW196278   9.225   8.795   9.479
30828SOL    HW296279   9.328   8.675   9.523
30829SOL     OW96280  10.125   8.020   9.635
30829SOL    HW196281  10.132   7.931   9.589
30829SOL    HW296282  10.031   8.054   9.627
30830SOL     OW96283   9.783   7.948   9.501
30830SOL    HW196284   9.844   8.028   9.505
30830SOL    HW296285   9.688   7.979   9.508
30831SOL     OW96286   9.900   8.935   9.801
30831SOL    HW196287   9.942   8.877   9.731
30831SOL    HW296288   9.856   9.014   9.757
30832SOL     OW96289   9.565   8.796   9.600
30832SOL    HW196290   9.469   8.797   9.573
30832SOL    HW296291   9.577   8.849   9.684
30833SOL     OW96292   9.385   7.793   9.343
30833SOL    HW196293   9.293   7.765   9.314
30833SOL    HW296294   9.416   7.870   9.287
30834SOL     OW96295   9.382   7.614   9.628
30834SOL    HW196296   9.365   7.697   9.574
30834SOL    HW296297   9.472   7.577   9.606
30835SOL     OW96298   9.904   8.193   9.962
30835SOL    HW196299   9.954   8.278   9.943
30835SOL    HW296300   9.816   8.195   9.914
30836SOL     OW96301   9.389   8.688   9.963
30836SOL    HW196302   9.388   8.641  10.051
30836SOL    HW296303   9.471   8.660   9.912
30837SOL     OW96304   9.738   7.872   9.830
30837SOL    HW196305   9.768   7.800   9.768
30837SOL    HW296306   9.699   7.832   9.913
30838SOL     OW96307   9.349   8.525   9.610
30838SOL    HW196308   9.448   8.514   9.601
30838SOL    HW296309   9.309   8.439   9.642
30839SOL     OW96310   9.535   9.585   0.996
30839SOL    HW196311   9.570   9.568   1.088
30839SOL    HW296312   9.447   9.540   0.984
30840SOL     OW96313   9.329   9.678   0.647
30840SOL    HW196314   9.247   9.721   0.686
30840SOL    HW296315   9.301   9.605   0.584
30841SOL     OW96316  10.160  10.108   1.823
30841SOL    HW196317  10.156  10.184   1.888
30841SOL    HW296318  10.182  10.144   1.732
30842SOL     OW96319   9.748   9.702   1.499
30842SOL    HW196320   9.830   9.646   1.508
30842SOL    HW296321   9.667   9.644   1.503
30843SOL     OW96322   9.432   9.953   0.563
30843SOL    HW196323   9.387   9.865   0.580
30843SOL    HW296324   9.431  10.007   0.647
30844SOL     OW96325  10.119   9.314   0.502
30844SOL    HW196326  10.159   9.405   0.493
30844SOL    HW296327  10.019   9.322   0.508
30845SOL     OW96328   9.627   9.561   1.801
30845SOL    HW196329   9.698   9.632   1.807
30845SOL    HW296330   9.539   9.600   1.829
30846SOL     OW96331  10.175   9.658   0.195
30846SOL    HW196332  10.234   9.721   0.146
30846SOL    HW296333  10.194   9.564   0.166
30847SOL     OW96334   9.860   9.506   0.885
30847SOL    HW196335   9.855   9.501   0.985
30847SOL    HW296336   9.862   9.602   0.856
30848SOL     OW96337   9.512   9.595   1.498
30848SOL    HW196338   9.432   9.655   1.485
30848SOL    HW296339   9.502   9.546   1.584
30849SOL     OW96340   9.924   9.432   0.117
30849SOL    HW196341  10.022   9.410   0.124
30849SOL    HW296342   9.893   9.415   0.024
30850SOL     OW96343   9.849   9.374   0.512
30850SOL    HW196344   9.768   9.375   0.570
30850SOL    HW296345   9.852   9.457   0.457
30851SOL     OW96346  10.245   9.546   0.480
30851SOL    HW196347  10.197   9.587   0.402
30851SOL    HW296348  10.344   9.544   0.461
30852SOL     OW96349   9.388   9.866   1.386
30852SOL    HW196350   9.480   9.865   1.345
30852SOL    HW296351   9.382   9.940   1.453
30853SOL     OW96352   9.871   9.532   1.147
30853SOL    HW196353   9.909   9.448   1.184
30853SOL    HW296354   9.783   9.551   1.191
30854SOL     OW96355   9.837   9.566   0.328
30854SOL    HW196356   9.864   9.507   0.253
30854SOL    HW296357   9.837   9.661   0.297
30855SOL     OW96358   9.876   9.847   0.865
30855SOL    HW196359   9.888   9.913   0.791
30855SOL    HW296360   9.922   9.881   0.948
30856SOL     OW96361   9.814   9.360   1.740
30856SOL    HW196362   9.772   9.303   1.670
30856SOL    HW296363   9.748   9.429   1.772
30857SOL     OW96364   9.617   9.523   1.231
30857SOL    HW196365   9.594   9.560   1.321
30857SOL    HW296366   9.587   9.428   1.225
30858SOL     OW96367   9.617   9.373   0.618
30858SOL    HW196368   9.606   9.467   0.651
30858SOL    HW296369   9.612   9.310   0.695
30859SOL     OW96370   9.629  10.120   0.949
30859SOL    HW196371   9.722  10.156   0.954
30859SOL    HW296372   9.623  10.035   1.001
30860SOL     OW96373   9.649   9.819   1.006
30860SOL    HW196374   9.597   9.736   0.989
30860SOL    HW296375   9.726   9.824   0.942
30861SOL     OW96376   9.350   9.854   1.114
30861SOL    HW196377   9.435   9.821   1.073
30861SOL    HW296378   9.363   9.869   1.212
30862SOL     OW96379   9.499   9.830   1.722
30862SOL    HW196380   9.558   9.790   1.652
30862SOL    HW296381   9.441   9.901   1.681
30863SOL     OW96382  10.125   9.882   0.325
30863SOL    HW196383  10.132   9.793   0.279
30863SOL    HW296384  10.031   9.916   0.317
30864SOL     OW96385   9.573   9.636   0.720
30864SOL    HW196386   9.494   9.687   0.686
30864SOL    HW296387   9.564   9.621   0.818
30865SOL     OW96388   9.982   9.513   1.489
30865SOL    HW196389  10.072   9.497   1.449
30865SOL    HW296390   9.990   9.518   1.588
30866SOL     OW96391   9.385   9.655   0.033
30866SOL    HW196392   9.293   9.627   0.004
30866SOL    HW296393   9.416   9.732  -0.023
30867SOL     OW96394   9.382   9.476   0.318
30867SOL    HW196395   9.365   9.559   0.264
30867SOL    HW296396   9.472   9.439   0.296
30868SOL     OW96397   9.738   9.734   0.520
30868SOL    HW196398   9.768   9.662   0.458
30868SOL    HW296399   9.699   9.694   0.603
30869SOL     OW96400   9.627   9.857   1.280
30869SOL    HW196401   9.665   9.798   1.352
30869SOL    HW296402   9.667   9.831   1.192
30870SOL     OW96403   9.535   9.585   2.858
30870SOL    HW196404   9.570   9.568   2.950
30870SOL    HW296405   9.447   9.540   2.846
30871SOL     OW96406   9.329   9.678   2.509
30871SOL    HW196407   9.247   9.721   2.548
30871SOL    HW296408   9.301   9.605   2.446
30872SOL     OW96409   9.748   9.702   3.361
30872SOL    HW196410   9.830   9.646   3.370
30872SOL    HW296411   9.667   9.644   3.365
30873SOL     OW96412   9.432   9.953   2.425
30873SOL    HW196413   9.387   9.865   2.442
30873SOL    HW296414   9.431  10.007   2.509
30874SOL     OW96415  10.119   9.314   2.364
30874SOL    HW196416  10.159   9.405   2.355
30874SOL    HW296417  10.019   9.322   2.370
30875SOL     OW96418  10.175   9.658   2.057
30875SOL    HW196419  10.234   9.721   2.008
30875SOL    HW296420  10.194   9.564   2.028
30876SOL     OW96421   9.512   9.595   3.360
30876SOL    HW196422   9.432   9.655   3.347
30876SOL    HW296423   9.502   9.546   3.446
30877SOL     OW96424   9.924   9.432   1.979
30877SOL    HW196425  10.022   9.410   1.986
30877SOL    HW296426   9.893   9.415   1.886
30878SOL     OW96427   9.849   9.374   2.374
30878SOL    HW196428   9.768   9.375   2.432
30878SOL    HW296429   9.852   9.457   2.319
30879SOL     OW96430   9.607   9.345   2.033
30879SOL    HW196431   9.656   9.429   2.012
30879SOL    HW296432   9.669   9.280   2.078
30880SOL     OW96433  10.245   9.546   2.342
30880SOL    HW196434  10.197   9.587   2.264
30880SOL    HW296435  10.344   9.544   2.323
30881SOL     OW96436   9.388   9.866   3.248
30881SOL    HW196437   9.480   9.865   3.207
30881SOL    HW296438   9.382   9.940   3.315
30882SOL     OW96439   9.837   9.566   2.190
30882SOL    HW196440   9.864   9.507   2.115
30882SOL    HW296441   9.837   9.661   2.159
30883SOL     OW96442   9.617   9.523   3.093
30883SOL    HW196443   9.594   9.560   3.183
30883SOL    HW296444   9.587   9.428   3.087
30884SOL     OW96445   9.617   9.373   2.480
30884SOL    HW196446   9.606   9.467   2.513
30884SOL    HW296447   9.612   9.310   2.557
30885SOL     OW96448   9.629  10.120   2.811
30885SOL    HW196449   9.722  10.156   2.816
30885SOL    HW296450   9.623  10.035   2.863
30886SOL     OW96451   9.649   9.819   2.868
30886SOL    HW196452   9.597   9.736   2.851
30886SOL    HW296453   9.726   9.824   2.804
30887SOL     OW96454   9.350   9.854   2.976
30887SOL    HW196455   9.435   9.821   2.935
30887SOL    HW296456   9.363   9.869   3.074
30888SOL     OW96457   9.499   9.830   3.584
30888SOL    HW196458   9.558   9.790   3.514
30888SOL    HW296459   9.441   9.901   3.543
30889SOL     OW96460  10.125   9.882   2.187
30889SOL    HW196461  10.132   9.793   2.141
30889SOL    HW296462  10.031   9.916   2.179
30890SOL     OW96463   9.573   9.636   2.582
30890SOL    HW196464   9.494   9.687   2.548
30890SOL    HW296465   9.564   9.621   2.680
30891SOL     OW96466   9.385   9.655   1.895
30891SOL    HW196467   9.293   9.627   1.866
30891SOL    HW296468   9.416   9.732   1.839
30892SOL     OW96469   9.382   9.476   2.180
30892SOL    HW196470   9.365   9.559   2.126
30892SOL    HW296471   9.472   9.439   2.158
30893SOL     OW96472   9.738   9.734   2.382
30893SOL    HW196473   9.768   9.662   2.320
30893SOL    HW296474   9.699   9.694   2.465
30894SOL     OW96475   9.627   9.857   3.142
30894SOL    HW196476   9.665   9.798   3.214
30894SOL    HW296477   9.667   9.831   3.054
30895SOL     OW96478   9.535   9.585   4.720
30895SOL    HW196479   9.570   9.568   4.812
30895SOL    HW296480   9.447   9.540   4.708
30896SOL     OW96481   9.329   9.678   4.371
30896SOL    HW196482   9.247   9.721   4.410
30896SOL    HW296483   9.301   9.605   4.308
30897SOL     OW96484   9.748   9.702   5.223
30897SOL    HW196485   9.830   9.646   5.232
30897SOL    HW296486   9.667   9.644   5.227
30898SOL     OW96487   9.432   9.953   4.287
30898SOL    HW196488   9.387   9.865   4.304
30898SOL    HW296489   9.431  10.007   4.371
30899SOL     OW96490  10.119   9.314   4.226
30899SOL    HW196491  10.159   9.405   4.217
30899SOL    HW296492  10.019   9.322   4.232
30900SOL     OW96493   9.627   9.561   5.525
30900SOL    HW196494   9.698   9.632   5.531
30900SOL    HW296495   9.539   9.600   5.553
30901SOL     OW96496  10.175   9.658   3.919
30901SOL    HW196497  10.234   9.721   3.870
30901SOL    HW296498  10.194   9.564   3.890
30902SOL     OW96499   9.512   9.595   5.222
30902SOL    HW196500   9.432   9.655   5.209
30902SOL    HW296501   9.502   9.546   5.308
30903SOL     OW96502   9.849   9.374   4.236
30903SOL    HW196503   9.768   9.375   4.294
30903SOL    HW296504   9.852   9.457   4.181
30904SOL     OW96505   9.607   9.345   3.895
30904SOL    HW196506   9.656   9.429   3.874
30904SOL    HW296507   9.669   9.280   3.940
30905SOL     OW96508  10.245   9.546   4.204
30905SOL    HW196509  10.197   9.587   4.126
30905SOL    HW296510  10.344   9.544   4.185
30906SOL     OW96511   9.388   9.866   5.110
30906SOL    HW196512   9.480   9.865   5.069
30906SOL    HW296513   9.382   9.940   5.177
30907SOL     OW96514   9.871   9.532   4.871
30907SOL    HW196515   9.909   9.448   4.908
30907SOL    HW296516   9.783   9.551   4.915
30908SOL     OW96517   9.837   9.566   4.052
30908SOL    HW196518   9.864   9.507   3.977
30908SOL    HW296519   9.837   9.661   4.021
30909SOL     OW96520   9.876   9.847   4.589
30909SOL    HW196521   9.888   9.913   4.515
30909SOL    HW296522   9.922   9.881   4.672
30910SOL     OW96523   9.814   9.360   5.464
30910SOL    HW196524   9.772   9.303   5.394
30910SOL    HW296525   9.748   9.429   5.496
30911SOL     OW96526   9.617   9.523   4.955
30911SOL    HW196527   9.594   9.560   5.045
30911SOL    HW296528   9.587   9.428   4.949
30912SOL     OW96529   9.629  10.120   4.673
30912SOL    HW196530   9.722  10.156   4.678
30912SOL    HW296531   9.623  10.035   4.725
30913SOL     OW96532   9.649   9.819   4.730
30913SOL    HW196533   9.597   9.736   4.713
30913SOL    HW296534   9.726   9.824   4.666
30914SOL     OW96535   9.350   9.854   4.838
30914SOL    HW196536   9.435   9.821   4.797
30914SOL    HW296537   9.363   9.869   4.936
30915SOL     OW96538   9.499   9.830   5.446
30915SOL    HW196539   9.558   9.790   5.376
30915SOL    HW296540   9.441   9.901   5.405
30916SOL     OW96541  10.125   9.882   4.049
30916SOL    HW196542  10.132   9.793   4.003
30916SOL    HW296543  10.031   9.916   4.041
30917SOL     OW96544   9.573   9.636   4.444
30917SOL    HW196545   9.494   9.687   4.410
30917SOL    HW296546   9.564   9.621   4.542
30918SOL     OW96547   9.982   9.513   5.213
30918SOL    HW196548  10.072   9.497   5.173
30918SOL    HW296549   9.990   9.518   5.312
30919SOL     OW96550   9.382   9.476   4.042
30919SOL    HW196551   9.365   9.559   3.988
30919SOL    HW296552   9.472   9.439   4.020
30920SOL     OW96553   9.738   9.734   4.244
30920SOL    HW196554   9.768   9.662   4.182
30920SOL    HW296555   9.699   9.694   4.327
30921SOL     OW96556   9.627   9.857   5.004
30921SOL    HW196557   9.665   9.798   5.076
30921SOL    HW296558   9.667   9.831   4.916
30922SOL     OW96559   9.535   9.585   6.582
30922SOL    HW196560   9.570   9.568   6.674
30922SOL    HW296561   9.447   9.540   6.570
30923SOL     OW96562   9.329   9.678   6.233
30923SOL    HW196563   9.247   9.721   6.272
30923SOL    HW296564   9.301   9.605   6.170
30924SOL     OW96565  10.160  10.108   7.409
30924SOL    HW196566  10.156  10.184   7.474
30924SOL    HW296567  10.182  10.144   7.318
30925SOL     OW96568   9.748   9.702   7.085
30925SOL    HW196569   9.830   9.646   7.094
30925SOL    HW296570   9.667   9.644   7.089
30926SOL     OW96571   9.432   9.953   6.149
30926SOL    HW196572   9.387   9.865   6.166
30926SOL    HW296573   9.431  10.007   6.233
30927SOL     OW96574  10.119   9.314   6.088
30927SOL    HW196575  10.159   9.405   6.079
30927SOL    HW296576  10.019   9.322   6.094
30928SOL     OW96577   9.627   9.561   7.387
30928SOL    HW196578   9.698   9.632   7.393
30928SOL    HW296579   9.539   9.600   7.415
30929SOL     OW96580  10.175   9.658   5.781
30929SOL    HW196581  10.234   9.721   5.732
30929SOL    HW296582  10.194   9.564   5.752
30930SOL     OW96583   9.860   9.506   6.471
30930SOL    HW196584   9.855   9.501   6.571
30930SOL    HW296585   9.862   9.602   6.442
30931SOL     OW96586   9.512   9.595   7.084
30931SOL    HW196587   9.432   9.655   7.071
30931SOL    HW296588   9.502   9.546   7.170
30932SOL     OW96589   9.924   9.432   5.703
30932SOL    HW196590  10.022   9.410   5.710
30932SOL    HW296591   9.893   9.415   5.610
30933SOL     OW96592  10.245   9.546   6.066
30933SOL    HW196593  10.197   9.587   5.988
30933SOL    HW296594  10.344   9.544   6.047
30934SOL     OW96595   9.388   9.866   6.972
30934SOL    HW196596   9.480   9.865   6.931
30934SOL    HW296597   9.382   9.940   7.039
30935SOL     OW96598   9.871   9.532   6.733
30935SOL    HW196599   9.909   9.448   6.770
30935SOL    HW296600   9.783   9.551   6.777
30936SOL     OW96601   9.876   9.847   6.451
30936SOL    HW196602   9.888   9.913   6.377
30936SOL    HW296603   9.922   9.881   6.534
30937SOL     OW96604   9.814   9.360   7.326
30937SOL    HW196605   9.772   9.303   7.256
30937SOL    HW296606   9.748   9.429   7.358
30938SOL     OW96607   9.617   9.523   6.817
30938SOL    HW196608   9.594   9.560   6.907
30938SOL    HW296609   9.587   9.428   6.811
30939SOL     OW96610   9.629  10.120   6.535
30939SOL    HW196611   9.722  10.156   6.540
30939SOL    HW296612   9.623  10.035   6.587
30940SOL     OW96613   9.649   9.819   6.592
30940SOL    HW196614   9.597   9.736   6.575
30940SOL    HW296615   9.726   9.824   6.528
30941SOL     OW96616   9.350   9.854   6.700
30941SOL    HW196617   9.435   9.821   6.659
30941SOL    HW296618   9.363   9.869   6.798
30942SOL     OW96619   9.499   9.830   7.308
30942SOL    HW196620   9.558   9.790   7.238
30942SOL    HW296621   9.441   9.901   7.267
30943SOL     OW96622  10.125   9.882   5.911
30943SOL    HW196623  10.132   9.793   5.865
30943SOL    HW296624  10.031   9.916   5.903
30944SOL     OW96625   9.573   9.636   6.306
30944SOL    HW196626   9.494   9.687   6.272
30944SOL    HW296627   9.564   9.621   6.404
30945SOL     OW96628   9.982   9.513   7.075
30945SOL    HW196629  10.072   9.497   7.035
30945SOL    HW296630   9.990   9.518   7.174
30946SOL     OW96631   9.385   9.655   5.619
30946SOL    HW196632   9.293   9.627   5.590
30946SOL    HW296633   9.416   9.732   5.563
30947SOL     OW96634   9.382   9.476   5.904
30947SOL    HW196635   9.365   9.559   5.850
30947SOL    HW296636   9.472   9.439   5.882
30948SOL     OW96637   9.738   9.734   6.106
30948SOL    HW196638   9.768   9.662   6.044
30948SOL    HW296639   9.699   9.694   6.189
30949SOL     OW96640   9.627   9.857   6.866
30949SOL    HW196641   9.665   9.798   6.938
30949SOL    HW296642   9.667   9.831   6.778
30950SOL     OW96643   9.535   9.585   8.444
30950SOL    HW196644   9.570   9.568   8.536
30950SOL    HW296645   9.447   9.540   8.432
30951SOL     OW96646   9.329   9.678   8.095
30951SOL    HW196647   9.247   9.721   8.134
30951SOL    HW296648   9.301   9.605   8.032
30952SOL     OW96649  10.160  10.108   9.271
30952SOL    HW196650  10.156  10.184   9.336
30952SOL    HW296651  10.182  10.144   9.180
30953SOL     OW96652   9.748   9.702   8.947
30953SOL    HW196653   9.830   9.646   8.956
30953SOL    HW296654   9.667   9.644   8.951
30954SOL     OW96655   9.432   9.953   8.011
30954SOL    HW196656   9.387   9.865   8.028
30954SOL    HW296657   9.431  10.007   8.095
30955SOL     OW96658  10.119   9.314   7.950
30955SOL    HW196659  10.159   9.405   7.941
30955SOL    HW296660  10.019   9.322   7.956
30956SOL     OW96661   9.627   9.561   9.249
30956SOL    HW196662   9.698   9.632   9.255
30956SOL    HW296663   9.539   9.600   9.277
30957SOL     OW96664  10.175   9.658   7.643
30957SOL    HW196665  10.234   9.721   7.594
30957SOL    HW296666  10.194   9.564   7.614
30958SOL     OW96667   9.512   9.595   8.946
30958SOL    HW196668   9.432   9.655   8.933
30958SOL    HW296669   9.502   9.546   9.032
30959SOL     OW96670   9.924   9.432   7.565
30959SOL    HW196671  10.022   9.410   7.572
30959SOL    HW296672   9.893   9.415   7.472
30960SOL     OW96673   9.849   9.374   7.960
30960SOL    HW196674   9.768   9.375   8.018
30960SOL    HW296675   9.852   9.457   7.905
30961SOL     OW96676   9.607   9.345   7.619
30961SOL    HW196677   9.656   9.429   7.598
30961SOL    HW296678   9.669   9.280   7.664
30962SOL     OW96679  10.245   9.546   7.928
30962SOL    HW196680  10.197   9.587   7.850
30962SOL    HW296681  10.344   9.544   7.909
30963SOL     OW96682   9.388   9.866   8.834
30963SOL    HW196683   9.480   9.865   8.793
30963SOL    HW296684   9.382   9.940   8.901
30964SOL     OW96685   9.871   9.532   8.595
30964SOL    HW196686   9.909   9.448   8.632
30964SOL    HW296687   9.783   9.551   8.639
30965SOL     OW96688   9.837   9.566   7.776
30965SOL    HW196689   9.864   9.507   7.701
30965SOL    HW296690   9.837   9.661   7.745
30966SOL     OW96691   9.876   9.847   8.313
30966SOL    HW196692   9.888   9.913   8.239
30966SOL    HW296693   9.922   9.881   8.396
30967SOL     OW96694   9.814   9.360   9.188
30967SOL    HW196695   9.772   9.303   9.118
30967SOL    HW296696   9.748   9.429   9.220
30968SOL     OW96697   9.617   9.523   8.679
30968SOL    HW196698   9.594   9.560   8.769
30968SOL    HW296699   9.587   9.428   8.673
30969SOL     OW96700   9.617   9.373   8.066
30969SOL    HW196701   9.606   9.467   8.099
30969SOL    HW296702   9.612   9.310   8.143
30970SOL     OW96703   9.629  10.120   8.397
30970SOL    HW196704   9.722  10.156   8.402
30970SOL    HW296705   9.623  10.035   8.449
30971SOL     OW96706   9.649   9.819   8.454
30971SOL    HW196707   9.597   9.736   8.437
30971SOL    HW296708   9.726   9.824   8.390
30972SOL     OW96709   9.350   9.854   8.562
30972SOL    HW196710   9.435   9.821   8.521
30972SOL    HW296711   9.363   9.869   8.660
30973SOL     OW96712   9.499   9.830   9.170
30973SOL    HW196713   9.558   9.790   9.100
30973SOL    HW296714   9.441   9.901   9.129
30974SOL     OW96715  10.125   9.882   7.773
30974SOL    HW196716  10.132   9.793   7.727
30974SOL    HW296717  10.031   9.916   7.765
30975SOL     OW96718   9.573   9.636   8.168
30975SOL    HW196719   9.494   9.687   8.134
30975SOL    HW296720   9.564   9.621   8.266
30976SOL     OW96721   9.982   9.513   8.937
30976SOL    HW196722  10.072   9.497   8.897
30976SOL    HW296723   9.990   9.518   9.036
30977SOL     OW96724   9.385   9.655   7.481
30977SOL    HW196725   9.293   9.627   7.452
30977SOL    HW296726   9.416   9.732   7.425
30978SOL     OW96727   9.382   9.476   7.766
30978SOL    HW196728   9.365   9.559   7.712
30978SOL    HW296729   9.472   9.439   7.744
30979SOL     OW96730   9.738   9.734   7.968
30979SOL    HW196731   9.768   9.662   7.906
30979SOL    HW296732   9.699   9.694   8.051
30980SOL     OW96733   9.627   9.857   8.728
30980SOL    HW196734   9.665   9.798   8.800
30980SOL    HW296735   9.667   9.831   8.640
30981SOL     OW96736   9.432   9.953   9.873
30981SOL    HW196737   9.387   9.865   9.890
30981SOL    HW296738   9.431  10.007   9.957
30982SOL     OW96739  10.119   9.314   9.812
30982SOL    HW196740  10.159   9.405   9.803
30982SOL    HW296741  10.019   9.322   9.818
30983SOL     OW96742  10.175   9.658   9.505
30983SOL    HW196743  10.234   9.721   9.456
30983SOL    HW296744  10.194   9.564   9.476
30984SOL     OW96745   9.924   9.432   9.427
30984SOL    HW196746  10.022   9.410   9.434
30984SOL    HW296747   9.893   9.415   9.334
30985SOL     OW96748   9.849   9.374   9.822
30985SOL    HW196749   9.768   9.375   9.880
30985SOL    HW296750   9.852   9.457   9.767
30986SOL     OW96751   9.607   9.345   9.481
30986SOL    HW196752   9.656   9.429   9.460
30986SOL    HW296753   9.669   9.280   9.526
30987SOL     OW96754  10.245   9.546   9.790
30987SOL    HW196755  10.197   9.587   9.712
30987SOL    HW296756  10.344   9.544   9.771
30988SOL     OW96757   9.837   9.566   9.638
30988SOL    HW196758   9.864   9.507   9.563
30988SOL    HW296759   9.837   9.661   9.607
30989SOL     OW96760   9.617   9.373   9.928
30989SOL    HW196761   9.606   9.467   9.961
30989SOL    HW296762   9.612   9.310  10.005
30990SOL     OW96763   9.649   9.819  10.316
30990SOL    HW196764   9.597   9.736  10.299
30990SOL    HW296765   9.726   9.824  10.252
30991SOL     OW96766  10.125   9.882   9.635
30991SOL    HW196767  10.132   9.793   9.589
30991SOL    HW296768  10.031   9.916   9.627
30992SOL     OW96769   9.385   9.655   9.343
30992SOL    HW196770   9.293   9.627   9.314
30992SOL    HW296771   9.416   9.732   9.287
30993SOL     OW96772   9.382   9.476   9.628
30993SOL    HW196773   9.365   9.559   9.574
30993SOL    HW296774   9.472   9.439   9.606
30994SOL     OW96775   9.738   9.734   9.830
30994SOL    HW196776   9.768   9.662   9.768
30994SOL    HW296777   9.699   9.694   9.913
  10.00000  10.00000  10.00000
